+ 0 0 4 tcp 40 ------- 0 0.0 6.0 0 0
- 0 0 4 tcp 40 ------- 0 0.0 6.0 0 0
r 0.10016 0 4 tcp 40 ------- 0 0.0 6.0 0 0
+ 0.10016 4 5 tcp 40 ------- 0 0.0 6.0 0 0
- 0.10016 4 5 tcp 40 ------- 0 0.0 6.0 0 0
r 0.60176 4 5 tcp 40 ------- 0 0.0 6.0 0 0
+ 0.60176 5 6 tcp 40 ------- 0 0.0 6.0 0 0
- 0.60176 5 6 tcp 40 ------- 0 0.0 6.0 0 0
r 0.70192 5 6 tcp 40 ------- 0 0.0 6.0 0 0
+ 0.70192 6 5 ack 40 ------- 0 6.0 0.0 0 1
- 0.70192 6 5 ack 40 ------- 0 6.0 0.0 0 1
r 0.80208 6 5 ack 40 ------- 0 6.0 0.0 0 1
+ 0.80208 5 4 ack 40 ------- 0 6.0 0.0 0 1
- 0.80208 5 4 ack 40 ------- 0 6.0 0.0 0 1
r 1.30368 5 4 ack 40 ------- 0 6.0 0.0 0 1
+ 1.30368 4 0 ack 40 ------- 0 6.0 0.0 0 1
- 1.30368 4 0 ack 40 ------- 0 6.0 0.0 0 1
r 1.40384 4 0 ack 40 ------- 0 6.0 0.0 0 1
+ 1.40384 0 4 tcp 1040 ------- 0 0.0 6.0 1 2
- 1.40384 0 4 tcp 1040 ------- 0 0.0 6.0 1 2
+ 1.40384 0 4 tcp 1040 ------- 0 0.0 6.0 2 3
- 1.408 0 4 tcp 1040 ------- 0 0.0 6.0 2 3
r 1.508 0 4 tcp 1040 ------- 0 0.0 6.0 1 2
+ 1.508 4 5 tcp 1040 ------- 0 0.0 6.0 1 2
- 1.508 4 5 tcp 1040 ------- 0 0.0 6.0 1 2
r 1.51216 0 4 tcp 1040 ------- 0 0.0 6.0 2 3
+ 1.51216 4 5 tcp 1040 ------- 0 0.0 6.0 2 3
- 1.5496 4 5 tcp 1040 ------- 0 0.0 6.0 2 3
r 2.0496 4 5 tcp 1040 ------- 0 0.0 6.0 1 2
+ 2.0496 5 6 tcp 1040 ------- 0 0.0 6.0 1 2
- 2.0496 5 6 tcp 1040 ------- 0 0.0 6.0 1 2
r 2.0912 4 5 tcp 1040 ------- 0 0.0 6.0 2 3
+ 2.0912 5 6 tcp 1040 ------- 0 0.0 6.0 2 3
- 2.0912 5 6 tcp 1040 ------- 0 0.0 6.0 2 3
r 2.15376 5 6 tcp 1040 ------- 0 0.0 6.0 1 2
+ 2.15376 6 5 ack 40 ------- 0 6.0 0.0 1 4
- 2.15376 6 5 ack 40 ------- 0 6.0 0.0 1 4
r 2.19536 5 6 tcp 1040 ------- 0 0.0 6.0 2 3
+ 2.19536 6 5 ack 40 ------- 0 6.0 0.0 2 5
- 2.19536 6 5 ack 40 ------- 0 6.0 0.0 2 5
r 2.25392 6 5 ack 40 ------- 0 6.0 0.0 1 4
+ 2.25392 5 4 ack 40 ------- 0 6.0 0.0 1 4
- 2.25392 5 4 ack 40 ------- 0 6.0 0.0 1 4
r 2.29552 6 5 ack 40 ------- 0 6.0 0.0 2 5
+ 2.29552 5 4 ack 40 ------- 0 6.0 0.0 2 5
- 2.29552 5 4 ack 40 ------- 0 6.0 0.0 2 5
r 2.75552 5 4 ack 40 ------- 0 6.0 0.0 1 4
+ 2.75552 4 0 ack 40 ------- 0 6.0 0.0 1 4
- 2.75552 4 0 ack 40 ------- 0 6.0 0.0 1 4
r 2.79712 5 4 ack 40 ------- 0 6.0 0.0 2 5
+ 2.79712 4 0 ack 40 ------- 0 6.0 0.0 2 5
- 2.79712 4 0 ack 40 ------- 0 6.0 0.0 2 5
r 2.85568 4 0 ack 40 ------- 0 6.0 0.0 1 4
+ 2.85568 0 4 tcp 1040 ------- 0 0.0 6.0 3 6
- 2.85568 0 4 tcp 1040 ------- 0 0.0 6.0 3 6
+ 2.85568 0 4 tcp 1040 ------- 0 0.0 6.0 4 7
- 2.85984 0 4 tcp 1040 ------- 0 0.0 6.0 4 7
r 2.89728 4 0 ack 40 ------- 0 6.0 0.0 2 5
+ 2.89728 0 4 tcp 1040 ------- 0 0.0 6.0 5 8
- 2.89728 0 4 tcp 1040 ------- 0 0.0 6.0 5 8
+ 2.89728 0 4 tcp 1040 ------- 0 0.0 6.0 6 9
- 2.90144 0 4 tcp 1040 ------- 0 0.0 6.0 6 9
r 2.95984 0 4 tcp 1040 ------- 0 0.0 6.0 3 6
+ 2.95984 4 5 tcp 1040 ------- 0 0.0 6.0 3 6
- 2.95984 4 5 tcp 1040 ------- 0 0.0 6.0 3 6
r 2.964 0 4 tcp 1040 ------- 0 0.0 6.0 4 7
+ 2.964 4 5 tcp 1040 ------- 0 0.0 6.0 4 7
r 3.00144 0 4 tcp 1040 ------- 0 0.0 6.0 5 8
+ 3.00144 4 5 tcp 1040 ------- 0 0.0 6.0 5 8
- 3.00144 4 5 tcp 1040 ------- 0 0.0 6.0 4 7
r 3.0056 0 4 tcp 1040 ------- 0 0.0 6.0 6 9
+ 3.0056 4 5 tcp 1040 ------- 0 0.0 6.0 6 9
- 3.04304 4 5 tcp 1040 ------- 0 0.0 6.0 5 8
- 3.08464 4 5 tcp 1040 ------- 0 0.0 6.0 6 9
r 3.50144 4 5 tcp 1040 ------- 0 0.0 6.0 3 6
+ 3.50144 5 6 tcp 1040 ------- 0 0.0 6.0 3 6
- 3.50144 5 6 tcp 1040 ------- 0 0.0 6.0 3 6
r 3.54304 4 5 tcp 1040 ------- 0 0.0 6.0 4 7
+ 3.54304 5 6 tcp 1040 ------- 0 0.0 6.0 4 7
- 3.54304 5 6 tcp 1040 ------- 0 0.0 6.0 4 7
r 3.58464 4 5 tcp 1040 ------- 0 0.0 6.0 5 8
+ 3.58464 5 6 tcp 1040 ------- 0 0.0 6.0 5 8
- 3.58464 5 6 tcp 1040 ------- 0 0.0 6.0 5 8
r 3.6056 5 6 tcp 1040 ------- 0 0.0 6.0 3 6
+ 3.6056 6 5 ack 40 ------- 0 6.0 0.0 3 10
- 3.6056 6 5 ack 40 ------- 0 6.0 0.0 3 10
r 3.62624 4 5 tcp 1040 ------- 0 0.0 6.0 6 9
+ 3.62624 5 6 tcp 1040 ------- 0 0.0 6.0 6 9
- 3.62624 5 6 tcp 1040 ------- 0 0.0 6.0 6 9
r 3.6472 5 6 tcp 1040 ------- 0 0.0 6.0 4 7
+ 3.6472 6 5 ack 40 ------- 0 6.0 0.0 4 11
- 3.6472 6 5 ack 40 ------- 0 6.0 0.0 4 11
r 3.6888 5 6 tcp 1040 ------- 0 0.0 6.0 5 8
+ 3.6888 6 5 ack 40 ------- 0 6.0 0.0 5 12
- 3.6888 6 5 ack 40 ------- 0 6.0 0.0 5 12
r 3.70576 6 5 ack 40 ------- 0 6.0 0.0 3 10
+ 3.70576 5 4 ack 40 ------- 0 6.0 0.0 3 10
- 3.70576 5 4 ack 40 ------- 0 6.0 0.0 3 10
r 3.7304 5 6 tcp 1040 ------- 0 0.0 6.0 6 9
+ 3.7304 6 5 ack 40 ------- 0 6.0 0.0 6 13
- 3.7304 6 5 ack 40 ------- 0 6.0 0.0 6 13
r 3.74736 6 5 ack 40 ------- 0 6.0 0.0 4 11
+ 3.74736 5 4 ack 40 ------- 0 6.0 0.0 4 11
- 3.74736 5 4 ack 40 ------- 0 6.0 0.0 4 11
r 3.78896 6 5 ack 40 ------- 0 6.0 0.0 5 12
+ 3.78896 5 4 ack 40 ------- 0 6.0 0.0 5 12
- 3.78896 5 4 ack 40 ------- 0 6.0 0.0 5 12
r 3.83056 6 5 ack 40 ------- 0 6.0 0.0 6 13
+ 3.83056 5 4 ack 40 ------- 0 6.0 0.0 6 13
- 3.83056 5 4 ack 40 ------- 0 6.0 0.0 6 13
r 4.20736 5 4 ack 40 ------- 0 6.0 0.0 3 10
+ 4.20736 4 0 ack 40 ------- 0 6.0 0.0 3 10
- 4.20736 4 0 ack 40 ------- 0 6.0 0.0 3 10
r 4.24896 5 4 ack 40 ------- 0 6.0 0.0 4 11
+ 4.24896 4 0 ack 40 ------- 0 6.0 0.0 4 11
- 4.24896 4 0 ack 40 ------- 0 6.0 0.0 4 11
r 4.29056 5 4 ack 40 ------- 0 6.0 0.0 5 12
+ 4.29056 4 0 ack 40 ------- 0 6.0 0.0 5 12
- 4.29056 4 0 ack 40 ------- 0 6.0 0.0 5 12
r 4.30752 4 0 ack 40 ------- 0 6.0 0.0 3 10
+ 4.30752 0 4 tcp 1040 ------- 0 0.0 6.0 7 14
- 4.30752 0 4 tcp 1040 ------- 0 0.0 6.0 7 14
+ 4.30752 0 4 tcp 1040 ------- 0 0.0 6.0 8 15
- 4.31168 0 4 tcp 1040 ------- 0 0.0 6.0 8 15
r 4.33216 5 4 ack 40 ------- 0 6.0 0.0 6 13
+ 4.33216 4 0 ack 40 ------- 0 6.0 0.0 6 13
- 4.33216 4 0 ack 40 ------- 0 6.0 0.0 6 13
r 4.34912 4 0 ack 40 ------- 0 6.0 0.0 4 11
+ 4.34912 0 4 tcp 1040 ------- 0 0.0 6.0 9 16
- 4.34912 0 4 tcp 1040 ------- 0 0.0 6.0 9 16
+ 4.34912 0 4 tcp 1040 ------- 0 0.0 6.0 10 17
- 4.35328 0 4 tcp 1040 ------- 0 0.0 6.0 10 17
r 4.39072 4 0 ack 40 ------- 0 6.0 0.0 5 12
+ 4.39072 0 4 tcp 1040 ------- 0 0.0 6.0 11 18
- 4.39072 0 4 tcp 1040 ------- 0 0.0 6.0 11 18
+ 4.39072 0 4 tcp 1040 ------- 0 0.0 6.0 12 19
- 4.39488 0 4 tcp 1040 ------- 0 0.0 6.0 12 19
r 4.41168 0 4 tcp 1040 ------- 0 0.0 6.0 7 14
+ 4.41168 4 5 tcp 1040 ------- 0 0.0 6.0 7 14
- 4.41168 4 5 tcp 1040 ------- 0 0.0 6.0 7 14
r 4.41584 0 4 tcp 1040 ------- 0 0.0 6.0 8 15
+ 4.41584 4 5 tcp 1040 ------- 0 0.0 6.0 8 15
r 4.43232 4 0 ack 40 ------- 0 6.0 0.0 6 13
+ 4.43232 0 4 tcp 1040 ------- 0 0.0 6.0 13 20
- 4.43232 0 4 tcp 1040 ------- 0 0.0 6.0 13 20
+ 4.43232 0 4 tcp 1040 ------- 0 0.0 6.0 14 21
- 4.43648 0 4 tcp 1040 ------- 0 0.0 6.0 14 21
r 4.45328 0 4 tcp 1040 ------- 0 0.0 6.0 9 16
+ 4.45328 4 5 tcp 1040 ------- 0 0.0 6.0 9 16
- 4.45328 4 5 tcp 1040 ------- 0 0.0 6.0 8 15
r 4.45744 0 4 tcp 1040 ------- 0 0.0 6.0 10 17
+ 4.45744 4 5 tcp 1040 ------- 0 0.0 6.0 10 17
r 4.49488 0 4 tcp 1040 ------- 0 0.0 6.0 11 18
+ 4.49488 4 5 tcp 1040 ------- 0 0.0 6.0 11 18
- 4.49488 4 5 tcp 1040 ------- 0 0.0 6.0 9 16
r 4.49904 0 4 tcp 1040 ------- 0 0.0 6.0 12 19
+ 4.49904 4 5 tcp 1040 ------- 0 0.0 6.0 12 19
r 4.53648 0 4 tcp 1040 ------- 0 0.0 6.0 13 20
+ 4.53648 4 5 tcp 1040 ------- 0 0.0 6.0 13 20
- 4.53648 4 5 tcp 1040 ------- 0 0.0 6.0 10 17
r 4.54064 0 4 tcp 1040 ------- 0 0.0 6.0 14 21
+ 4.54064 4 5 tcp 1040 ------- 0 0.0 6.0 14 21
- 4.57808 4 5 tcp 1040 ------- 0 0.0 6.0 11 18
- 4.61968 4 5 tcp 1040 ------- 0 0.0 6.0 12 19
- 4.66128 4 5 tcp 1040 ------- 0 0.0 6.0 13 20
- 4.70288 4 5 tcp 1040 ------- 0 0.0 6.0 14 21
r 4.95328 4 5 tcp 1040 ------- 0 0.0 6.0 7 14
+ 4.95328 5 6 tcp 1040 ------- 0 0.0 6.0 7 14
- 4.95328 5 6 tcp 1040 ------- 0 0.0 6.0 7 14
r 4.99488 4 5 tcp 1040 ------- 0 0.0 6.0 8 15
+ 4.99488 5 6 tcp 1040 ------- 0 0.0 6.0 8 15
- 4.99488 5 6 tcp 1040 ------- 0 0.0 6.0 8 15
+ 5 1 4 tcp 40 ------- 0 1.0 7.0 0 22
- 5 1 4 tcp 40 ------- 0 1.0 7.0 0 22
r 5.03648 4 5 tcp 1040 ------- 0 0.0 6.0 9 16
+ 5.03648 5 6 tcp 1040 ------- 0 0.0 6.0 9 16
- 5.03648 5 6 tcp 1040 ------- 0 0.0 6.0 9 16
r 5.05744 5 6 tcp 1040 ------- 0 0.0 6.0 7 14
+ 5.05744 6 5 ack 40 ------- 0 6.0 0.0 7 23
- 5.05744 6 5 ack 40 ------- 0 6.0 0.0 7 23
r 5.07808 4 5 tcp 1040 ------- 0 0.0 6.0 10 17
+ 5.07808 5 6 tcp 1040 ------- 0 0.0 6.0 10 17
- 5.07808 5 6 tcp 1040 ------- 0 0.0 6.0 10 17
r 5.09904 5 6 tcp 1040 ------- 0 0.0 6.0 8 15
+ 5.09904 6 5 ack 40 ------- 0 6.0 0.0 8 24
- 5.09904 6 5 ack 40 ------- 0 6.0 0.0 8 24
r 5.10016 1 4 tcp 40 ------- 0 1.0 7.0 0 22
+ 5.10016 4 5 tcp 40 ------- 0 1.0 7.0 0 22
- 5.10016 4 5 tcp 40 ------- 0 1.0 7.0 0 22
r 5.11968 4 5 tcp 1040 ------- 0 0.0 6.0 11 18
+ 5.11968 5 6 tcp 1040 ------- 0 0.0 6.0 11 18
- 5.11968 5 6 tcp 1040 ------- 0 0.0 6.0 11 18
r 5.14064 5 6 tcp 1040 ------- 0 0.0 6.0 9 16
+ 5.14064 6 5 ack 40 ------- 0 6.0 0.0 9 25
- 5.14064 6 5 ack 40 ------- 0 6.0 0.0 9 25
r 5.1576 6 5 ack 40 ------- 0 6.0 0.0 7 23
+ 5.1576 5 4 ack 40 ------- 0 6.0 0.0 7 23
- 5.1576 5 4 ack 40 ------- 0 6.0 0.0 7 23
r 5.16128 4 5 tcp 1040 ------- 0 0.0 6.0 12 19
+ 5.16128 5 6 tcp 1040 ------- 0 0.0 6.0 12 19
- 5.16128 5 6 tcp 1040 ------- 0 0.0 6.0 12 19
r 5.18224 5 6 tcp 1040 ------- 0 0.0 6.0 10 17
+ 5.18224 6 5 ack 40 ------- 0 6.0 0.0 10 26
- 5.18224 6 5 ack 40 ------- 0 6.0 0.0 10 26
r 5.1992 6 5 ack 40 ------- 0 6.0 0.0 8 24
+ 5.1992 5 4 ack 40 ------- 0 6.0 0.0 8 24
- 5.1992 5 4 ack 40 ------- 0 6.0 0.0 8 24
r 5.20288 4 5 tcp 1040 ------- 0 0.0 6.0 13 20
+ 5.20288 5 6 tcp 1040 ------- 0 0.0 6.0 13 20
- 5.20288 5 6 tcp 1040 ------- 0 0.0 6.0 13 20
r 5.22384 5 6 tcp 1040 ------- 0 0.0 6.0 11 18
+ 5.22384 6 5 ack 40 ------- 0 6.0 0.0 11 27
- 5.22384 6 5 ack 40 ------- 0 6.0 0.0 11 27
r 5.2408 6 5 ack 40 ------- 0 6.0 0.0 9 25
+ 5.2408 5 4 ack 40 ------- 0 6.0 0.0 9 25
- 5.2408 5 4 ack 40 ------- 0 6.0 0.0 9 25
r 5.24448 4 5 tcp 1040 ------- 0 0.0 6.0 14 21
+ 5.24448 5 6 tcp 1040 ------- 0 0.0 6.0 14 21
- 5.24448 5 6 tcp 1040 ------- 0 0.0 6.0 14 21
r 5.26544 5 6 tcp 1040 ------- 0 0.0 6.0 12 19
+ 5.26544 6 5 ack 40 ------- 0 6.0 0.0 12 28
- 5.26544 6 5 ack 40 ------- 0 6.0 0.0 12 28
r 5.2824 6 5 ack 40 ------- 0 6.0 0.0 10 26
+ 5.2824 5 4 ack 40 ------- 0 6.0 0.0 10 26
- 5.2824 5 4 ack 40 ------- 0 6.0 0.0 10 26
r 5.30704 5 6 tcp 1040 ------- 0 0.0 6.0 13 20
+ 5.30704 6 5 ack 40 ------- 0 6.0 0.0 13 29
- 5.30704 6 5 ack 40 ------- 0 6.0 0.0 13 29
r 5.324 6 5 ack 40 ------- 0 6.0 0.0 11 27
+ 5.324 5 4 ack 40 ------- 0 6.0 0.0 11 27
- 5.324 5 4 ack 40 ------- 0 6.0 0.0 11 27
r 5.34864 5 6 tcp 1040 ------- 0 0.0 6.0 14 21
+ 5.34864 6 5 ack 40 ------- 0 6.0 0.0 14 30
- 5.34864 6 5 ack 40 ------- 0 6.0 0.0 14 30
r 5.3656 6 5 ack 40 ------- 0 6.0 0.0 12 28
+ 5.3656 5 4 ack 40 ------- 0 6.0 0.0 12 28
- 5.3656 5 4 ack 40 ------- 0 6.0 0.0 12 28
r 5.4072 6 5 ack 40 ------- 0 6.0 0.0 13 29
+ 5.4072 5 4 ack 40 ------- 0 6.0 0.0 13 29
- 5.4072 5 4 ack 40 ------- 0 6.0 0.0 13 29
r 5.4488 6 5 ack 40 ------- 0 6.0 0.0 14 30
+ 5.4488 5 4 ack 40 ------- 0 6.0 0.0 14 30
- 5.4488 5 4 ack 40 ------- 0 6.0 0.0 14 30
r 5.60176 4 5 tcp 40 ------- 0 1.0 7.0 0 22
+ 5.60176 5 7 tcp 40 ------- 0 1.0 7.0 0 22
- 5.60176 5 7 tcp 40 ------- 0 1.0 7.0 0 22
r 5.6592 5 4 ack 40 ------- 0 6.0 0.0 7 23
+ 5.6592 4 0 ack 40 ------- 0 6.0 0.0 7 23
- 5.6592 4 0 ack 40 ------- 0 6.0 0.0 7 23
r 5.7008 5 4 ack 40 ------- 0 6.0 0.0 8 24
+ 5.7008 4 0 ack 40 ------- 0 6.0 0.0 8 24
- 5.7008 4 0 ack 40 ------- 0 6.0 0.0 8 24
r 5.70192 5 7 tcp 40 ------- 0 1.0 7.0 0 22
+ 5.70192 7 5 ack 40 ------- 0 7.0 1.0 0 31
- 5.70192 7 5 ack 40 ------- 0 7.0 1.0 0 31
r 5.7424 5 4 ack 40 ------- 0 6.0 0.0 9 25
+ 5.7424 4 0 ack 40 ------- 0 6.0 0.0 9 25
- 5.7424 4 0 ack 40 ------- 0 6.0 0.0 9 25
r 5.75936 4 0 ack 40 ------- 0 6.0 0.0 7 23
+ 5.75936 0 4 tcp 1040 ------- 0 0.0 6.0 15 32
- 5.75936 0 4 tcp 1040 ------- 0 0.0 6.0 15 32
+ 5.75936 0 4 tcp 1040 ------- 0 0.0 6.0 16 33
- 5.76352 0 4 tcp 1040 ------- 0 0.0 6.0 16 33
r 5.784 5 4 ack 40 ------- 0 6.0 0.0 10 26
+ 5.784 4 0 ack 40 ------- 0 6.0 0.0 10 26
- 5.784 4 0 ack 40 ------- 0 6.0 0.0 10 26
r 5.80096 4 0 ack 40 ------- 0 6.0 0.0 8 24
+ 5.80096 0 4 tcp 1040 ------- 0 0.0 6.0 17 34
- 5.80096 0 4 tcp 1040 ------- 0 0.0 6.0 17 34
+ 5.80096 0 4 tcp 1040 ------- 0 0.0 6.0 18 35
r 5.80208 7 5 ack 40 ------- 0 7.0 1.0 0 31
+ 5.80208 5 4 ack 40 ------- 0 7.0 1.0 0 31
- 5.80208 5 4 ack 40 ------- 0 7.0 1.0 0 31
- 5.80512 0 4 tcp 1040 ------- 0 0.0 6.0 18 35
r 5.8256 5 4 ack 40 ------- 0 6.0 0.0 11 27
+ 5.8256 4 0 ack 40 ------- 0 6.0 0.0 11 27
- 5.8256 4 0 ack 40 ------- 0 6.0 0.0 11 27
r 5.84256 4 0 ack 40 ------- 0 6.0 0.0 9 25
+ 5.84256 0 4 tcp 1040 ------- 0 0.0 6.0 19 36
- 5.84256 0 4 tcp 1040 ------- 0 0.0 6.0 19 36
+ 5.84256 0 4 tcp 1040 ------- 0 0.0 6.0 20 37
- 5.84672 0 4 tcp 1040 ------- 0 0.0 6.0 20 37
r 5.86352 0 4 tcp 1040 ------- 0 0.0 6.0 15 32
+ 5.86352 4 5 tcp 1040 ------- 0 0.0 6.0 15 32
- 5.86352 4 5 tcp 1040 ------- 0 0.0 6.0 15 32
r 5.8672 5 4 ack 40 ------- 0 6.0 0.0 12 28
+ 5.8672 4 0 ack 40 ------- 0 6.0 0.0 12 28
- 5.8672 4 0 ack 40 ------- 0 6.0 0.0 12 28
r 5.86768 0 4 tcp 1040 ------- 0 0.0 6.0 16 33
+ 5.86768 4 5 tcp 1040 ------- 0 0.0 6.0 16 33
r 5.88416 4 0 ack 40 ------- 0 6.0 0.0 10 26
+ 5.88416 0 4 tcp 1040 ------- 0 0.0 6.0 21 38
- 5.88416 0 4 tcp 1040 ------- 0 0.0 6.0 21 38
+ 5.88416 0 4 tcp 1040 ------- 0 0.0 6.0 22 39
- 5.88832 0 4 tcp 1040 ------- 0 0.0 6.0 22 39
r 5.90512 0 4 tcp 1040 ------- 0 0.0 6.0 17 34
+ 5.90512 4 5 tcp 1040 ------- 0 0.0 6.0 17 34
- 5.90512 4 5 tcp 1040 ------- 0 0.0 6.0 16 33
r 5.9088 5 4 ack 40 ------- 0 6.0 0.0 13 29
+ 5.9088 4 0 ack 40 ------- 0 6.0 0.0 13 29
- 5.9088 4 0 ack 40 ------- 0 6.0 0.0 13 29
r 5.90928 0 4 tcp 1040 ------- 0 0.0 6.0 18 35
+ 5.90928 4 5 tcp 1040 ------- 0 0.0 6.0 18 35
r 5.92576 4 0 ack 40 ------- 0 6.0 0.0 11 27
+ 5.92576 0 4 tcp 1040 ------- 0 0.0 6.0 23 40
- 5.92576 0 4 tcp 1040 ------- 0 0.0 6.0 23 40
+ 5.92576 0 4 tcp 1040 ------- 0 0.0 6.0 24 41
- 5.92992 0 4 tcp 1040 ------- 0 0.0 6.0 24 41
r 5.94672 0 4 tcp 1040 ------- 0 0.0 6.0 19 36
+ 5.94672 4 5 tcp 1040 ------- 0 0.0 6.0 19 36
- 5.94672 4 5 tcp 1040 ------- 0 0.0 6.0 17 34
r 5.9504 5 4 ack 40 ------- 0 6.0 0.0 14 30
+ 5.9504 4 0 ack 40 ------- 0 6.0 0.0 14 30
- 5.9504 4 0 ack 40 ------- 0 6.0 0.0 14 30
r 5.95088 0 4 tcp 1040 ------- 0 0.0 6.0 20 37
+ 5.95088 4 5 tcp 1040 ------- 0 0.0 6.0 20 37
r 5.96736 4 0 ack 40 ------- 0 6.0 0.0 12 28
+ 5.96736 0 4 tcp 1040 ------- 0 0.0 6.0 25 42
- 5.96736 0 4 tcp 1040 ------- 0 0.0 6.0 25 42
+ 5.96736 0 4 tcp 1040 ------- 0 0.0 6.0 26 43
- 5.97152 0 4 tcp 1040 ------- 0 0.0 6.0 26 43
r 5.98832 0 4 tcp 1040 ------- 0 0.0 6.0 21 38
+ 5.98832 4 5 tcp 1040 ------- 0 0.0 6.0 21 38
- 5.98832 4 5 tcp 1040 ------- 0 0.0 6.0 18 35
r 5.99248 0 4 tcp 1040 ------- 0 0.0 6.0 22 39
+ 5.99248 4 5 tcp 1040 ------- 0 0.0 6.0 22 39
r 6.00896 4 0 ack 40 ------- 0 6.0 0.0 13 29
+ 6.00896 0 4 tcp 1040 ------- 0 0.0 6.0 27 44
- 6.00896 0 4 tcp 1040 ------- 0 0.0 6.0 27 44
+ 6.00896 0 4 tcp 1040 ------- 0 0.0 6.0 28 45
- 6.01312 0 4 tcp 1040 ------- 0 0.0 6.0 28 45
r 6.02992 0 4 tcp 1040 ------- 0 0.0 6.0 23 40
+ 6.02992 4 5 tcp 1040 ------- 0 0.0 6.0 23 40
- 6.02992 4 5 tcp 1040 ------- 0 0.0 6.0 19 36
r 6.03408 0 4 tcp 1040 ------- 0 0.0 6.0 24 41
+ 6.03408 4 5 tcp 1040 ------- 0 0.0 6.0 24 41
r 6.05056 4 0 ack 40 ------- 0 6.0 0.0 14 30
+ 6.05056 0 4 tcp 1040 ------- 0 0.0 6.0 29 46
- 6.05056 0 4 tcp 1040 ------- 0 0.0 6.0 29 46
+ 6.05056 0 4 tcp 1040 ------- 0 0.0 6.0 30 47
- 6.05472 0 4 tcp 1040 ------- 0 0.0 6.0 30 47
r 6.07152 0 4 tcp 1040 ------- 0 0.0 6.0 25 42
+ 6.07152 4 5 tcp 1040 ------- 0 0.0 6.0 25 42
d 6.07152 4 5 tcp 1040 ------- 0 0.0 6.0 25 42
- 6.07152 4 5 tcp 1040 ------- 0 0.0 6.0 20 37
r 6.07568 0 4 tcp 1040 ------- 0 0.0 6.0 26 43
+ 6.07568 4 5 tcp 1040 ------- 0 0.0 6.0 26 43
r 6.11312 0 4 tcp 1040 ------- 0 0.0 6.0 27 44
+ 6.11312 4 5 tcp 1040 ------- 0 0.0 6.0 27 44
d 6.11312 4 5 tcp 1040 ------- 0 0.0 6.0 27 44
- 6.11312 4 5 tcp 1040 ------- 0 0.0 6.0 21 38
r 6.11728 0 4 tcp 1040 ------- 0 0.0 6.0 28 45
+ 6.11728 4 5 tcp 1040 ------- 0 0.0 6.0 28 45
r 6.15472 0 4 tcp 1040 ------- 0 0.0 6.0 29 46
+ 6.15472 4 5 tcp 1040 ------- 0 0.0 6.0 29 46
d 6.15472 4 5 tcp 1040 ------- 0 0.0 6.0 29 46
- 6.15472 4 5 tcp 1040 ------- 0 0.0 6.0 22 39
r 6.15888 0 4 tcp 1040 ------- 0 0.0 6.0 30 47
+ 6.15888 4 5 tcp 1040 ------- 0 0.0 6.0 30 47
- 6.19632 4 5 tcp 1040 ------- 0 0.0 6.0 23 40
- 6.23792 4 5 tcp 1040 ------- 0 0.0 6.0 24 41
- 6.27952 4 5 tcp 1040 ------- 0 0.0 6.0 26 43
r 6.30368 5 4 ack 40 ------- 0 7.0 1.0 0 31
+ 6.30368 4 1 ack 40 ------- 0 7.0 1.0 0 31
- 6.30368 4 1 ack 40 ------- 0 7.0 1.0 0 31
- 6.32112 4 5 tcp 1040 ------- 0 0.0 6.0 28 45
- 6.36272 4 5 tcp 1040 ------- 0 0.0 6.0 30 47
r 6.40384 4 1 ack 40 ------- 0 7.0 1.0 0 31
+ 6.40384 1 4 tcp 1040 ------- 0 1.0 7.0 1 48
- 6.40384 1 4 tcp 1040 ------- 0 1.0 7.0 1 48
+ 6.40384 1 4 tcp 1040 ------- 0 1.0 7.0 2 49
r 6.40512 4 5 tcp 1040 ------- 0 0.0 6.0 15 32
+ 6.40512 5 6 tcp 1040 ------- 0 0.0 6.0 15 32
- 6.40512 5 6 tcp 1040 ------- 0 0.0 6.0 15 32
- 6.408 1 4 tcp 1040 ------- 0 1.0 7.0 2 49
r 6.44672 4 5 tcp 1040 ------- 0 0.0 6.0 16 33
+ 6.44672 5 6 tcp 1040 ------- 0 0.0 6.0 16 33
- 6.44672 5 6 tcp 1040 ------- 0 0.0 6.0 16 33
r 6.48832 4 5 tcp 1040 ------- 0 0.0 6.0 17 34
+ 6.48832 5 6 tcp 1040 ------- 0 0.0 6.0 17 34
- 6.48832 5 6 tcp 1040 ------- 0 0.0 6.0 17 34
r 6.508 1 4 tcp 1040 ------- 0 1.0 7.0 1 48
+ 6.508 4 5 tcp 1040 ------- 0 1.0 7.0 1 48
- 6.508 4 5 tcp 1040 ------- 0 1.0 7.0 1 48
r 6.50928 5 6 tcp 1040 ------- 0 0.0 6.0 15 32
+ 6.50928 6 5 ack 40 ------- 0 6.0 0.0 15 50
- 6.50928 6 5 ack 40 ------- 0 6.0 0.0 15 50
r 6.51216 1 4 tcp 1040 ------- 0 1.0 7.0 2 49
+ 6.51216 4 5 tcp 1040 ------- 0 1.0 7.0 2 49
r 6.52992 4 5 tcp 1040 ------- 0 0.0 6.0 18 35
+ 6.52992 5 6 tcp 1040 ------- 0 0.0 6.0 18 35
- 6.52992 5 6 tcp 1040 ------- 0 0.0 6.0 18 35
- 6.5496 4 5 tcp 1040 ------- 0 1.0 7.0 2 49
r 6.55088 5 6 tcp 1040 ------- 0 0.0 6.0 16 33
+ 6.55088 6 5 ack 40 ------- 0 6.0 0.0 16 51
- 6.55088 6 5 ack 40 ------- 0 6.0 0.0 16 51
r 6.57152 4 5 tcp 1040 ------- 0 0.0 6.0 19 36
+ 6.57152 5 6 tcp 1040 ------- 0 0.0 6.0 19 36
- 6.57152 5 6 tcp 1040 ------- 0 0.0 6.0 19 36
r 6.59248 5 6 tcp 1040 ------- 0 0.0 6.0 17 34
+ 6.59248 6 5 ack 40 ------- 0 6.0 0.0 17 52
- 6.59248 6 5 ack 40 ------- 0 6.0 0.0 17 52
r 6.60944 6 5 ack 40 ------- 0 6.0 0.0 15 50
+ 6.60944 5 4 ack 40 ------- 0 6.0 0.0 15 50
- 6.60944 5 4 ack 40 ------- 0 6.0 0.0 15 50
r 6.61312 4 5 tcp 1040 ------- 0 0.0 6.0 20 37
+ 6.61312 5 6 tcp 1040 ------- 0 0.0 6.0 20 37
- 6.61312 5 6 tcp 1040 ------- 0 0.0 6.0 20 37
r 6.63408 5 6 tcp 1040 ------- 0 0.0 6.0 18 35
+ 6.63408 6 5 ack 40 ------- 0 6.0 0.0 18 53
- 6.63408 6 5 ack 40 ------- 0 6.0 0.0 18 53
r 6.65104 6 5 ack 40 ------- 0 6.0 0.0 16 51
+ 6.65104 5 4 ack 40 ------- 0 6.0 0.0 16 51
- 6.65104 5 4 ack 40 ------- 0 6.0 0.0 16 51
r 6.65472 4 5 tcp 1040 ------- 0 0.0 6.0 21 38
+ 6.65472 5 6 tcp 1040 ------- 0 0.0 6.0 21 38
- 6.65472 5 6 tcp 1040 ------- 0 0.0 6.0 21 38
r 6.67568 5 6 tcp 1040 ------- 0 0.0 6.0 19 36
+ 6.67568 6 5 ack 40 ------- 0 6.0 0.0 19 54
- 6.67568 6 5 ack 40 ------- 0 6.0 0.0 19 54
r 6.69264 6 5 ack 40 ------- 0 6.0 0.0 17 52
+ 6.69264 5 4 ack 40 ------- 0 6.0 0.0 17 52
- 6.69264 5 4 ack 40 ------- 0 6.0 0.0 17 52
r 6.69632 4 5 tcp 1040 ------- 0 0.0 6.0 22 39
+ 6.69632 5 6 tcp 1040 ------- 0 0.0 6.0 22 39
- 6.69632 5 6 tcp 1040 ------- 0 0.0 6.0 22 39
r 6.71728 5 6 tcp 1040 ------- 0 0.0 6.0 20 37
+ 6.71728 6 5 ack 40 ------- 0 6.0 0.0 20 55
- 6.71728 6 5 ack 40 ------- 0 6.0 0.0 20 55
r 6.73424 6 5 ack 40 ------- 0 6.0 0.0 18 53
+ 6.73424 5 4 ack 40 ------- 0 6.0 0.0 18 53
- 6.73424 5 4 ack 40 ------- 0 6.0 0.0 18 53
r 6.73792 4 5 tcp 1040 ------- 0 0.0 6.0 23 40
+ 6.73792 5 6 tcp 1040 ------- 0 0.0 6.0 23 40
- 6.73792 5 6 tcp 1040 ------- 0 0.0 6.0 23 40
r 6.75888 5 6 tcp 1040 ------- 0 0.0 6.0 21 38
+ 6.75888 6 5 ack 40 ------- 0 6.0 0.0 21 56
- 6.75888 6 5 ack 40 ------- 0 6.0 0.0 21 56
r 6.77584 6 5 ack 40 ------- 0 6.0 0.0 19 54
+ 6.77584 5 4 ack 40 ------- 0 6.0 0.0 19 54
- 6.77584 5 4 ack 40 ------- 0 6.0 0.0 19 54
r 6.77952 4 5 tcp 1040 ------- 0 0.0 6.0 24 41
+ 6.77952 5 6 tcp 1040 ------- 0 0.0 6.0 24 41
- 6.77952 5 6 tcp 1040 ------- 0 0.0 6.0 24 41
r 6.80048 5 6 tcp 1040 ------- 0 0.0 6.0 22 39
+ 6.80048 6 5 ack 40 ------- 0 6.0 0.0 22 57
- 6.80048 6 5 ack 40 ------- 0 6.0 0.0 22 57
r 6.81744 6 5 ack 40 ------- 0 6.0 0.0 20 55
+ 6.81744 5 4 ack 40 ------- 0 6.0 0.0 20 55
- 6.81744 5 4 ack 40 ------- 0 6.0 0.0 20 55
r 6.82112 4 5 tcp 1040 ------- 0 0.0 6.0 26 43
+ 6.82112 5 6 tcp 1040 ------- 0 0.0 6.0 26 43
- 6.82112 5 6 tcp 1040 ------- 0 0.0 6.0 26 43
r 6.84208 5 6 tcp 1040 ------- 0 0.0 6.0 23 40
+ 6.84208 6 5 ack 40 ------- 0 6.0 0.0 23 58
- 6.84208 6 5 ack 40 ------- 0 6.0 0.0 23 58
r 6.85904 6 5 ack 40 ------- 0 6.0 0.0 21 56
+ 6.85904 5 4 ack 40 ------- 0 6.0 0.0 21 56
- 6.85904 5 4 ack 40 ------- 0 6.0 0.0 21 56
r 6.86272 4 5 tcp 1040 ------- 0 0.0 6.0 28 45
+ 6.86272 5 6 tcp 1040 ------- 0 0.0 6.0 28 45
- 6.86272 5 6 tcp 1040 ------- 0 0.0 6.0 28 45
r 6.88368 5 6 tcp 1040 ------- 0 0.0 6.0 24 41
+ 6.88368 6 5 ack 40 ------- 0 6.0 0.0 24 59
- 6.88368 6 5 ack 40 ------- 0 6.0 0.0 24 59
r 6.90064 6 5 ack 40 ------- 0 6.0 0.0 22 57
+ 6.90064 5 4 ack 40 ------- 0 6.0 0.0 22 57
- 6.90064 5 4 ack 40 ------- 0 6.0 0.0 22 57
r 6.90432 4 5 tcp 1040 ------- 0 0.0 6.0 30 47
+ 6.90432 5 6 tcp 1040 ------- 0 0.0 6.0 30 47
- 6.90432 5 6 tcp 1040 ------- 0 0.0 6.0 30 47
r 6.92528 5 6 tcp 1040 ------- 0 0.0 6.0 26 43
+ 6.92528 6 5 ack 40 ------- 0 6.0 0.0 24 60
- 6.92528 6 5 ack 40 ------- 0 6.0 0.0 24 60
r 6.94224 6 5 ack 40 ------- 0 6.0 0.0 23 58
+ 6.94224 5 4 ack 40 ------- 0 6.0 0.0 23 58
- 6.94224 5 4 ack 40 ------- 0 6.0 0.0 23 58
r 6.96688 5 6 tcp 1040 ------- 0 0.0 6.0 28 45
+ 6.96688 6 5 ack 40 ------- 0 6.0 0.0 24 61
- 6.96688 6 5 ack 40 ------- 0 6.0 0.0 24 61
r 6.98384 6 5 ack 40 ------- 0 6.0 0.0 24 59
+ 6.98384 5 4 ack 40 ------- 0 6.0 0.0 24 59
- 6.98384 5 4 ack 40 ------- 0 6.0 0.0 24 59
r 7.00848 5 6 tcp 1040 ------- 0 0.0 6.0 30 47
+ 7.00848 6 5 ack 40 ------- 0 6.0 0.0 24 62
- 7.00848 6 5 ack 40 ------- 0 6.0 0.0 24 62
r 7.02544 6 5 ack 40 ------- 0 6.0 0.0 24 60
+ 7.02544 5 4 ack 40 ------- 0 6.0 0.0 24 60
- 7.02544 5 4 ack 40 ------- 0 6.0 0.0 24 60
r 7.0496 4 5 tcp 1040 ------- 0 1.0 7.0 1 48
+ 7.0496 5 7 tcp 1040 ------- 0 1.0 7.0 1 48
- 7.0496 5 7 tcp 1040 ------- 0 1.0 7.0 1 48
r 7.06704 6 5 ack 40 ------- 0 6.0 0.0 24 61
+ 7.06704 5 4 ack 40 ------- 0 6.0 0.0 24 61
- 7.06704 5 4 ack 40 ------- 0 6.0 0.0 24 61
r 7.0912 4 5 tcp 1040 ------- 0 1.0 7.0 2 49
+ 7.0912 5 7 tcp 1040 ------- 0 1.0 7.0 2 49
- 7.0912 5 7 tcp 1040 ------- 0 1.0 7.0 2 49
r 7.10864 6 5 ack 40 ------- 0 6.0 0.0 24 62
+ 7.10864 5 4 ack 40 ------- 0 6.0 0.0 24 62
- 7.10864 5 4 ack 40 ------- 0 6.0 0.0 24 62
r 7.11104 5 4 ack 40 ------- 0 6.0 0.0 15 50
+ 7.11104 4 0 ack 40 ------- 0 6.0 0.0 15 50
- 7.11104 4 0 ack 40 ------- 0 6.0 0.0 15 50
r 7.15264 5 4 ack 40 ------- 0 6.0 0.0 16 51
+ 7.15264 4 0 ack 40 ------- 0 6.0 0.0 16 51
- 7.15264 4 0 ack 40 ------- 0 6.0 0.0 16 51
r 7.15376 5 7 tcp 1040 ------- 0 1.0 7.0 1 48
+ 7.15376 7 5 ack 40 ------- 0 7.0 1.0 1 63
- 7.15376 7 5 ack 40 ------- 0 7.0 1.0 1 63
r 7.19424 5 4 ack 40 ------- 0 6.0 0.0 17 52
+ 7.19424 4 0 ack 40 ------- 0 6.0 0.0 17 52
- 7.19424 4 0 ack 40 ------- 0 6.0 0.0 17 52
r 7.19536 5 7 tcp 1040 ------- 0 1.0 7.0 2 49
+ 7.19536 7 5 ack 40 ------- 0 7.0 1.0 2 64
- 7.19536 7 5 ack 40 ------- 0 7.0 1.0 2 64
r 7.2112 4 0 ack 40 ------- 0 6.0 0.0 15 50
+ 7.2112 0 4 tcp 1040 ------- 0 0.0 6.0 31 65
- 7.2112 0 4 tcp 1040 ------- 0 0.0 6.0 31 65
+ 7.2112 0 4 tcp 1040 ------- 0 0.0 6.0 32 66
- 7.21536 0 4 tcp 1040 ------- 0 0.0 6.0 32 66
r 7.23584 5 4 ack 40 ------- 0 6.0 0.0 18 53
+ 7.23584 4 0 ack 40 ------- 0 6.0 0.0 18 53
- 7.23584 4 0 ack 40 ------- 0 6.0 0.0 18 53
r 7.2528 4 0 ack 40 ------- 0 6.0 0.0 16 51
+ 7.2528 0 4 tcp 1040 ------- 0 0.0 6.0 33 67
- 7.2528 0 4 tcp 1040 ------- 0 0.0 6.0 33 67
+ 7.2528 0 4 tcp 1040 ------- 0 0.0 6.0 34 68
r 7.25392 7 5 ack 40 ------- 0 7.0 1.0 1 63
+ 7.25392 5 4 ack 40 ------- 0 7.0 1.0 1 63
- 7.25392 5 4 ack 40 ------- 0 7.0 1.0 1 63
- 7.25696 0 4 tcp 1040 ------- 0 0.0 6.0 34 68
r 7.27744 5 4 ack 40 ------- 0 6.0 0.0 19 54
+ 7.27744 4 0 ack 40 ------- 0 6.0 0.0 19 54
- 7.27744 4 0 ack 40 ------- 0 6.0 0.0 19 54
r 7.2944 4 0 ack 40 ------- 0 6.0 0.0 17 52
+ 7.2944 0 4 tcp 1040 ------- 0 0.0 6.0 35 69
- 7.2944 0 4 tcp 1040 ------- 0 0.0 6.0 35 69
+ 7.2944 0 4 tcp 1040 ------- 0 0.0 6.0 36 70
r 7.29552 7 5 ack 40 ------- 0 7.0 1.0 2 64
+ 7.29552 5 4 ack 40 ------- 0 7.0 1.0 2 64
- 7.29552 5 4 ack 40 ------- 0 7.0 1.0 2 64
- 7.29856 0 4 tcp 1040 ------- 0 0.0 6.0 36 70
r 7.31536 0 4 tcp 1040 ------- 0 0.0 6.0 31 65
+ 7.31536 4 5 tcp 1040 ------- 0 0.0 6.0 31 65
- 7.31536 4 5 tcp 1040 ------- 0 0.0 6.0 31 65
r 7.31904 5 4 ack 40 ------- 0 6.0 0.0 20 55
+ 7.31904 4 0 ack 40 ------- 0 6.0 0.0 20 55
- 7.31904 4 0 ack 40 ------- 0 6.0 0.0 20 55
r 7.31952 0 4 tcp 1040 ------- 0 0.0 6.0 32 66
+ 7.31952 4 5 tcp 1040 ------- 0 0.0 6.0 32 66
r 7.336 4 0 ack 40 ------- 0 6.0 0.0 18 53
+ 7.336 0 4 tcp 1040 ------- 0 0.0 6.0 37 71
- 7.336 0 4 tcp 1040 ------- 0 0.0 6.0 37 71
+ 7.336 0 4 tcp 1040 ------- 0 0.0 6.0 38 72
- 7.34016 0 4 tcp 1040 ------- 0 0.0 6.0 38 72
r 7.35696 0 4 tcp 1040 ------- 0 0.0 6.0 33 67
+ 7.35696 4 5 tcp 1040 ------- 0 0.0 6.0 33 67
- 7.35696 4 5 tcp 1040 ------- 0 0.0 6.0 32 66
r 7.36064 5 4 ack 40 ------- 0 6.0 0.0 21 56
+ 7.36064 4 0 ack 40 ------- 0 6.0 0.0 21 56
- 7.36064 4 0 ack 40 ------- 0 6.0 0.0 21 56
r 7.36112 0 4 tcp 1040 ------- 0 0.0 6.0 34 68
+ 7.36112 4 5 tcp 1040 ------- 0 0.0 6.0 34 68
r 7.3776 4 0 ack 40 ------- 0 6.0 0.0 19 54
+ 7.3776 0 4 tcp 1040 ------- 0 0.0 6.0 39 73
- 7.3776 0 4 tcp 1040 ------- 0 0.0 6.0 39 73
r 7.39856 0 4 tcp 1040 ------- 0 0.0 6.0 35 69
+ 7.39856 4 5 tcp 1040 ------- 0 0.0 6.0 35 69
- 7.39856 4 5 tcp 1040 ------- 0 0.0 6.0 33 67
r 7.40224 5 4 ack 40 ------- 0 6.0 0.0 22 57
+ 7.40224 4 0 ack 40 ------- 0 6.0 0.0 22 57
- 7.40224 4 0 ack 40 ------- 0 6.0 0.0 22 57
r 7.40272 0 4 tcp 1040 ------- 0 0.0 6.0 36 70
+ 7.40272 4 5 tcp 1040 ------- 0 0.0 6.0 36 70
r 7.4192 4 0 ack 40 ------- 0 6.0 0.0 20 55
+ 7.4192 0 4 tcp 1040 ------- 0 0.0 6.0 40 74
- 7.4192 0 4 tcp 1040 ------- 0 0.0 6.0 40 74
r 7.44016 0 4 tcp 1040 ------- 0 0.0 6.0 37 71
+ 7.44016 4 5 tcp 1040 ------- 0 0.0 6.0 37 71
- 7.44016 4 5 tcp 1040 ------- 0 0.0 6.0 34 68
r 7.44384 5 4 ack 40 ------- 0 6.0 0.0 23 58
+ 7.44384 4 0 ack 40 ------- 0 6.0 0.0 23 58
- 7.44384 4 0 ack 40 ------- 0 6.0 0.0 23 58
r 7.44432 0 4 tcp 1040 ------- 0 0.0 6.0 38 72
+ 7.44432 4 5 tcp 1040 ------- 0 0.0 6.0 38 72
r 7.4608 4 0 ack 40 ------- 0 6.0 0.0 21 56
+ 7.4608 0 4 tcp 1040 ------- 0 0.0 6.0 41 75
- 7.4608 0 4 tcp 1040 ------- 0 0.0 6.0 41 75
r 7.48176 0 4 tcp 1040 ------- 0 0.0 6.0 39 73
+ 7.48176 4 5 tcp 1040 ------- 0 0.0 6.0 39 73
- 7.48176 4 5 tcp 1040 ------- 0 0.0 6.0 35 69
r 7.48544 5 4 ack 40 ------- 0 6.0 0.0 24 59
+ 7.48544 4 0 ack 40 ------- 0 6.0 0.0 24 59
- 7.48544 4 0 ack 40 ------- 0 6.0 0.0 24 59
r 7.5024 4 0 ack 40 ------- 0 6.0 0.0 22 57
+ 7.5024 0 4 tcp 1040 ------- 0 0.0 6.0 42 76
- 7.5024 0 4 tcp 1040 ------- 0 0.0 6.0 42 76
r 7.52336 0 4 tcp 1040 ------- 0 0.0 6.0 40 74
+ 7.52336 4 5 tcp 1040 ------- 0 0.0 6.0 40 74
- 7.52336 4 5 tcp 1040 ------- 0 0.0 6.0 36 70
r 7.52704 5 4 ack 40 ------- 0 6.0 0.0 24 60
+ 7.52704 4 0 ack 40 ------- 0 6.0 0.0 24 60
- 7.52704 4 0 ack 40 ------- 0 6.0 0.0 24 60
r 7.544 4 0 ack 40 ------- 0 6.0 0.0 23 58
+ 7.544 0 4 tcp 1040 ------- 0 0.0 6.0 43 77
- 7.544 0 4 tcp 1040 ------- 0 0.0 6.0 43 77
r 7.56496 0 4 tcp 1040 ------- 0 0.0 6.0 41 75
+ 7.56496 4 5 tcp 1040 ------- 0 0.0 6.0 41 75
- 7.56496 4 5 tcp 1040 ------- 0 0.0 6.0 37 71
r 7.56864 5 4 ack 40 ------- 0 6.0 0.0 24 61
+ 7.56864 4 0 ack 40 ------- 0 6.0 0.0 24 61
- 7.56864 4 0 ack 40 ------- 0 6.0 0.0 24 61
r 7.5856 4 0 ack 40 ------- 0 6.0 0.0 24 59
+ 7.5856 0 4 tcp 1040 ------- 0 0.0 6.0 44 78
- 7.5856 0 4 tcp 1040 ------- 0 0.0 6.0 44 78
r 7.60656 0 4 tcp 1040 ------- 0 0.0 6.0 42 76
+ 7.60656 4 5 tcp 1040 ------- 0 0.0 6.0 42 76
- 7.60656 4 5 tcp 1040 ------- 0 0.0 6.0 38 72
r 7.61024 5 4 ack 40 ------- 0 6.0 0.0 24 62
+ 7.61024 4 0 ack 40 ------- 0 6.0 0.0 24 62
- 7.61024 4 0 ack 40 ------- 0 6.0 0.0 24 62
r 7.6272 4 0 ack 40 ------- 0 6.0 0.0 24 60
r 7.64816 0 4 tcp 1040 ------- 0 0.0 6.0 43 77
+ 7.64816 4 5 tcp 1040 ------- 0 0.0 6.0 43 77
- 7.64816 4 5 tcp 1040 ------- 0 0.0 6.0 39 73
r 7.6688 4 0 ack 40 ------- 0 6.0 0.0 24 61
r 7.68976 0 4 tcp 1040 ------- 0 0.0 6.0 44 78
+ 7.68976 4 5 tcp 1040 ------- 0 0.0 6.0 44 78
- 7.68976 4 5 tcp 1040 ------- 0 0.0 6.0 40 74
r 7.7104 4 0 ack 40 ------- 0 6.0 0.0 24 62
+ 7.7104 0 4 tcp 1040 ---A--- 0 0.0 6.0 25 79
- 7.7104 0 4 tcp 1040 ---A--- 0 0.0 6.0 25 79
- 7.73136 4 5 tcp 1040 ------- 0 0.0 6.0 41 75
r 7.75552 5 4 ack 40 ------- 0 7.0 1.0 1 63
+ 7.75552 4 1 ack 40 ------- 0 7.0 1.0 1 63
- 7.75552 4 1 ack 40 ------- 0 7.0 1.0 1 63
- 7.77296 4 5 tcp 1040 ------- 0 0.0 6.0 42 76
r 7.79712 5 4 ack 40 ------- 0 7.0 1.0 2 64
+ 7.79712 4 1 ack 40 ------- 0 7.0 1.0 2 64
- 7.79712 4 1 ack 40 ------- 0 7.0 1.0 2 64
r 7.81456 0 4 tcp 1040 ---A--- 0 0.0 6.0 25 79
+ 7.81456 4 5 tcp 1040 ---A--- 0 0.0 6.0 25 79
- 7.81456 4 5 tcp 1040 ------- 0 0.0 6.0 43 77
r 7.85568 4 1 ack 40 ------- 0 7.0 1.0 1 63
+ 7.85568 1 4 tcp 1040 ------- 0 1.0 7.0 3 80
- 7.85568 1 4 tcp 1040 ------- 0 1.0 7.0 3 80
+ 7.85568 1 4 tcp 1040 ------- 0 1.0 7.0 4 81
- 7.85616 4 5 tcp 1040 ------- 0 0.0 6.0 44 78
r 7.85696 4 5 tcp 1040 ------- 0 0.0 6.0 31 65
+ 7.85696 5 6 tcp 1040 ------- 0 0.0 6.0 31 65
- 7.85696 5 6 tcp 1040 ------- 0 0.0 6.0 31 65
- 7.85984 1 4 tcp 1040 ------- 0 1.0 7.0 4 81
r 7.89728 4 1 ack 40 ------- 0 7.0 1.0 2 64
+ 7.89728 1 4 tcp 1040 ------- 0 1.0 7.0 5 82
- 7.89728 1 4 tcp 1040 ------- 0 1.0 7.0 5 82
+ 7.89728 1 4 tcp 1040 ------- 0 1.0 7.0 6 83
- 7.89776 4 5 tcp 1040 ---A--- 0 0.0 6.0 25 79
r 7.89856 4 5 tcp 1040 ------- 0 0.0 6.0 32 66
+ 7.89856 5 6 tcp 1040 ------- 0 0.0 6.0 32 66
- 7.89856 5 6 tcp 1040 ------- 0 0.0 6.0 32 66