+ 0.1 0 2 tcp 40 ------- 0 0.0 4.0 0 0
- 0.1 0 2 tcp 40 ------- 0 0.0 4.0 0 0
+ 0.1 1 2 cbr 1000 ------- 0 1.0 5.0 0 1
- 0.1 1 2 cbr 1000 ------- 0 1.0 5.0 0 1
+ 0.18 1 2 cbr 1000 ------- 0 1.0 5.0 1 2
- 0.18 1 2 cbr 1000 ------- 0 1.0 5.0 1 2
r 0.20016 0 2 tcp 40 ------- 0 0.0 4.0 0 0
+ 0.20016 2 3 tcp 40 ------- 0 0.0 4.0 0 0
- 0.20016 2 3 tcp 40 ------- 0 0.0 4.0 0 0
r 0.204 1 2 cbr 1000 ------- 0 1.0 5.0 0 1
+ 0.204 2 3 cbr 1000 ------- 0 1.0 5.0 0 1
- 0.204 2 3 cbr 1000 ------- 0 1.0 5.0 0 1
+ 0.26 1 2 cbr 1000 ------- 0 1.0 5.0 2 3
- 0.26 1 2 cbr 1000 ------- 0 1.0 5.0 2 3
r 0.284 1 2 cbr 1000 ------- 0 1.0 5.0 1 2
+ 0.284 2 3 cbr 1000 ------- 0 1.0 5.0 1 2
- 0.284 2 3 cbr 1000 ------- 0 1.0 5.0 1 2
+ 0.34 1 2 cbr 1000 ------- 0 1.0 5.0 3 4
- 0.34 1 2 cbr 1000 ------- 0 1.0 5.0 3 4
r 0.364 1 2 cbr 1000 ------- 0 1.0 5.0 2 3
+ 0.364 2 3 cbr 1000 ------- 0 1.0 5.0 2 3
- 0.364 2 3 cbr 1000 ------- 0 1.0 5.0 2 3
+ 0.42 1 2 cbr 1000 ------- 0 1.0 5.0 4 5
- 0.42 1 2 cbr 1000 ------- 0 1.0 5.0 4 5
r 0.444 1 2 cbr 1000 ------- 0 1.0 5.0 3 4
+ 0.444 2 3 cbr 1000 ------- 0 1.0 5.0 3 4
- 0.444 2 3 cbr 1000 ------- 0 1.0 5.0 3 4
+ 0.5 1 2 cbr 1000 ------- 0 1.0 5.0 5 6
- 0.5 1 2 cbr 1000 ------- 0 1.0 5.0 5 6
r 0.524 1 2 cbr 1000 ------- 0 1.0 5.0 4 5
+ 0.524 2 3 cbr 1000 ------- 0 1.0 5.0 4 5
- 0.524 2 3 cbr 1000 ------- 0 1.0 5.0 4 5
+ 0.58 1 2 cbr 1000 ------- 0 1.0 5.0 6 7
- 0.58 1 2 cbr 1000 ------- 0 1.0 5.0 6 7
r 0.604 1 2 cbr 1000 ------- 0 1.0 5.0 5 6
+ 0.604 2 3 cbr 1000 ------- 0 1.0 5.0 5 6
- 0.604 2 3 cbr 1000 ------- 0 1.0 5.0 5 6
+ 0.66 1 2 cbr 1000 ------- 0 1.0 5.0 7 8
- 0.66 1 2 cbr 1000 ------- 0 1.0 5.0 7 8
r 0.684 1 2 cbr 1000 ------- 0 1.0 5.0 6 7
+ 0.684 2 3 cbr 1000 ------- 0 1.0 5.0 6 7
- 0.684 2 3 cbr 1000 ------- 0 1.0 5.0 6 7
r 0.70176 2 3 tcp 40 ------- 0 0.0 4.0 0 0
+ 0.70176 3 4 tcp 40 ------- 0 0.0 4.0 0 0
- 0.70176 3 4 tcp 40 ------- 0 0.0 4.0 0 0
+ 0.74 1 2 cbr 1000 ------- 0 1.0 5.0 8 9
- 0.74 1 2 cbr 1000 ------- 0 1.0 5.0 8 9
r 0.744 2 3 cbr 1000 ------- 0 1.0 5.0 0 1
+ 0.744 3 5 cbr 1000 ------- 0 1.0 5.0 0 1
- 0.744 3 5 cbr 1000 ------- 0 1.0 5.0 0 1
r 0.764 1 2 cbr 1000 ------- 0 1.0 5.0 7 8
+ 0.764 2 3 cbr 1000 ------- 0 1.0 5.0 7 8
- 0.764 2 3 cbr 1000 ------- 0 1.0 5.0 7 8
r 0.80192 3 4 tcp 40 ------- 0 0.0 4.0 0 0
+ 0.80192 4 3 ack 40 ------- 0 4.0 0.0 0 10
- 0.80192 4 3 ack 40 ------- 0 4.0 0.0 0 10
+ 0.82 1 2 cbr 1000 ------- 0 1.0 5.0 9 11
- 0.82 1 2 cbr 1000 ------- 0 1.0 5.0 9 11
r 0.824 2 3 cbr 1000 ------- 0 1.0 5.0 1 2
+ 0.824 3 5 cbr 1000 ------- 0 1.0 5.0 1 2
- 0.824 3 5 cbr 1000 ------- 0 1.0 5.0 1 2
r 0.844 1 2 cbr 1000 ------- 0 1.0 5.0 8 9
+ 0.844 2 3 cbr 1000 ------- 0 1.0 5.0 8 9
- 0.844 2 3 cbr 1000 ------- 0 1.0 5.0 8 9
r 0.848 3 5 cbr 1000 ------- 0 1.0 5.0 0 1
+ 0.9 1 2 cbr 1000 ------- 0 1.0 5.0 10 12
- 0.9 1 2 cbr 1000 ------- 0 1.0 5.0 10 12
r 0.90208 4 3 ack 40 ------- 0 4.0 0.0 0 10
+ 0.90208 3 2 ack 40 ------- 0 4.0 0.0 0 10
- 0.90208 3 2 ack 40 ------- 0 4.0 0.0 0 10
r 0.904 2 3 cbr 1000 ------- 0 1.0 5.0 2 3
+ 0.904 3 5 cbr 1000 ------- 0 1.0 5.0 2 3
- 0.904 3 5 cbr 1000 ------- 0 1.0 5.0 2 3
r 0.924 1 2 cbr 1000 ------- 0 1.0 5.0 9 11
+ 0.924 2 3 cbr 1000 ------- 0 1.0 5.0 9 11
- 0.924 2 3 cbr 1000 ------- 0 1.0 5.0 9 11
r 0.928 3 5 cbr 1000 ------- 0 1.0 5.0 1 2
+ 0.98 1 2 cbr 1000 ------- 0 1.0 5.0 11 13
- 0.98 1 2 cbr 1000 ------- 0 1.0 5.0 11 13
r 0.984 2 3 cbr 1000 ------- 0 1.0 5.0 3 4
+ 0.984 3 5 cbr 1000 ------- 0 1.0 5.0 3 4
- 0.984 3 5 cbr 1000 ------- 0 1.0 5.0 3 4
r 1.004 1 2 cbr 1000 ------- 0 1.0 5.0 10 12
+ 1.004 2 3 cbr 1000 ------- 0 1.0 5.0 10 12
- 1.004 2 3 cbr 1000 ------- 0 1.0 5.0 10 12
r 1.008 3 5 cbr 1000 ------- 0 1.0 5.0 2 3
+ 1.06 1 2 cbr 1000 ------- 0 1.0 5.0 12 14
- 1.06 1 2 cbr 1000 ------- 0 1.0 5.0 12 14
r 1.064 2 3 cbr 1000 ------- 0 1.0 5.0 4 5
+ 1.064 3 5 cbr 1000 ------- 0 1.0 5.0 4 5
- 1.064 3 5 cbr 1000 ------- 0 1.0 5.0 4 5
r 1.084 1 2 cbr 1000 ------- 0 1.0 5.0 11 13
+ 1.084 2 3 cbr 1000 ------- 0 1.0 5.0 11 13
- 1.084 2 3 cbr 1000 ------- 0 1.0 5.0 11 13
r 1.088 3 5 cbr 1000 ------- 0 1.0 5.0 3 4
+ 1.14 1 2 cbr 1000 ------- 0 1.0 5.0 13 15
- 1.14 1 2 cbr 1000 ------- 0 1.0 5.0 13 15
r 1.144 2 3 cbr 1000 ------- 0 1.0 5.0 5 6
+ 1.144 3 5 cbr 1000 ------- 0 1.0 5.0 5 6
- 1.144 3 5 cbr 1000 ------- 0 1.0 5.0 5 6
r 1.164 1 2 cbr 1000 ------- 0 1.0 5.0 12 14
+ 1.164 2 3 cbr 1000 ------- 0 1.0 5.0 12 14
- 1.164 2 3 cbr 1000 ------- 0 1.0 5.0 12 14
r 1.168 3 5 cbr 1000 ------- 0 1.0 5.0 4 5
+ 1.22 1 2 cbr 1000 ------- 0 1.0 5.0 14 16
- 1.22 1 2 cbr 1000 ------- 0 1.0 5.0 14 16
r 1.224 2 3 cbr 1000 ------- 0 1.0 5.0 6 7
+ 1.224 3 5 cbr 1000 ------- 0 1.0 5.0 6 7
- 1.224 3 5 cbr 1000 ------- 0 1.0 5.0 6 7
r 1.244 1 2 cbr 1000 ------- 0 1.0 5.0 13 15
+ 1.244 2 3 cbr 1000 ------- 0 1.0 5.0 13 15
- 1.244 2 3 cbr 1000 ------- 0 1.0 5.0 13 15
r 1.248 3 5 cbr 1000 ------- 0 1.0 5.0 5 6
+ 1.3 1 2 cbr 1000 ------- 0 1.0 5.0 15 17
- 1.3 1 2 cbr 1000 ------- 0 1.0 5.0 15 17
r 1.304 2 3 cbr 1000 ------- 0 1.0 5.0 7 8
+ 1.304 3 5 cbr 1000 ------- 0 1.0 5.0 7 8
- 1.304 3 5 cbr 1000 ------- 0 1.0 5.0 7 8
r 1.324 1 2 cbr 1000 ------- 0 1.0 5.0 14 16
+ 1.324 2 3 cbr 1000 ------- 0 1.0 5.0 14 16
- 1.324 2 3 cbr 1000 ------- 0 1.0 5.0 14 16
r 1.328 3 5 cbr 1000 ------- 0 1.0 5.0 6 7
+ 1.38 1 2 cbr 1000 ------- 0 1.0 5.0 16 18
- 1.38 1 2 cbr 1000 ------- 0 1.0 5.0 16 18
r 1.384 2 3 cbr 1000 ------- 0 1.0 5.0 8 9
+ 1.384 3 5 cbr 1000 ------- 0 1.0 5.0 8 9
- 1.384 3 5 cbr 1000 ------- 0 1.0 5.0 8 9
r 1.40368 3 2 ack 40 ------- 0 4.0 0.0 0 10
+ 1.40368 2 0 ack 40 ------- 0 4.0 0.0 0 10
- 1.40368 2 0 ack 40 ------- 0 4.0 0.0 0 10
r 1.404 1 2 cbr 1000 ------- 0 1.0 5.0 15 17
+ 1.404 2 3 cbr 1000 ------- 0 1.0 5.0 15 17
- 1.404 2 3 cbr 1000 ------- 0 1.0 5.0 15 17
r 1.408 3 5 cbr 1000 ------- 0 1.0 5.0 7 8
+ 1.46 1 2 cbr 1000 ------- 0 1.0 5.0 17 19
- 1.46 1 2 cbr 1000 ------- 0 1.0 5.0 17 19
r 1.464 2 3 cbr 1000 ------- 0 1.0 5.0 9 11
+ 1.464 3 5 cbr 1000 ------- 0 1.0 5.0 9 11
- 1.464 3 5 cbr 1000 ------- 0 1.0 5.0 9 11
r 1.484 1 2 cbr 1000 ------- 0 1.0 5.0 16 18
+ 1.484 2 3 cbr 1000 ------- 0 1.0 5.0 16 18
- 1.484 2 3 cbr 1000 ------- 0 1.0 5.0 16 18
r 1.488 3 5 cbr 1000 ------- 0 1.0 5.0 8 9
r 1.50384 2 0 ack 40 ------- 0 4.0 0.0 0 10
+ 1.50384 0 2 tcp 1040 ------- 0 0.0 4.0 1 20
- 1.50384 0 2 tcp 1040 ------- 0 0.0 4.0 1 20
+ 1.50384 0 2 tcp 1040 ------- 0 0.0 4.0 2 21
- 1.508 0 2 tcp 1040 ------- 0 0.0 4.0 2 21
+ 1.54 1 2 cbr 1000 ------- 0 1.0 5.0 18 22
- 1.54 1 2 cbr 1000 ------- 0 1.0 5.0 18 22
r 1.544 2 3 cbr 1000 ------- 0 1.0 5.0 10 12
+ 1.544 3 5 cbr 1000 ------- 0 1.0 5.0 10 12
- 1.544 3 5 cbr 1000 ------- 0 1.0 5.0 10 12
r 1.564 1 2 cbr 1000 ------- 0 1.0 5.0 17 19
+ 1.564 2 3 cbr 1000 ------- 0 1.0 5.0 17 19
- 1.564 2 3 cbr 1000 ------- 0 1.0 5.0 17 19
r 1.568 3 5 cbr 1000 ------- 0 1.0 5.0 9 11
r 1.608 0 2 tcp 1040 ------- 0 0.0 4.0 1 20
+ 1.608 2 3 tcp 1040 ------- 0 0.0 4.0 1 20
- 1.608 2 3 tcp 1040 ------- 0 0.0 4.0 1 20
r 1.61216 0 2 tcp 1040 ------- 0 0.0 4.0 2 21
+ 1.61216 2 3 tcp 1040 ------- 0 0.0 4.0 2 21
+ 1.62 1 2 cbr 1000 ------- 0 1.0 5.0 19 23
- 1.62 1 2 cbr 1000 ------- 0 1.0 5.0 19 23
r 1.624 2 3 cbr 1000 ------- 0 1.0 5.0 11 13
+ 1.624 3 5 cbr 1000 ------- 0 1.0 5.0 11 13
- 1.624 3 5 cbr 1000 ------- 0 1.0 5.0 11 13
r 1.644 1 2 cbr 1000 ------- 0 1.0 5.0 18 22
+ 1.644 2 3 cbr 1000 ------- 0 1.0 5.0 18 22
r 1.648 3 5 cbr 1000 ------- 0 1.0 5.0 10 12
- 1.6496 2 3 tcp 1040 ------- 0 0.0 4.0 2 21
- 1.6912 2 3 cbr 1000 ------- 0 1.0 5.0 18 22
+ 1.7 1 2 cbr 1000 ------- 0 1.0 5.0 20 24
- 1.7 1 2 cbr 1000 ------- 0 1.0 5.0 20 24
r 1.704 2 3 cbr 1000 ------- 0 1.0 5.0 12 14
+ 1.704 3 5 cbr 1000 ------- 0 1.0 5.0 12 14
- 1.704 3 5 cbr 1000 ------- 0 1.0 5.0 12 14
r 1.724 1 2 cbr 1000 ------- 0 1.0 5.0 19 23
+ 1.724 2 3 cbr 1000 ------- 0 1.0 5.0 19 23
r 1.728 3 5 cbr 1000 ------- 0 1.0 5.0 11 13
- 1.7312 2 3 cbr 1000 ------- 0 1.0 5.0 19 23
+ 1.78 1 2 cbr 1000 ------- 0 1.0 5.0 21 25
- 1.78 1 2 cbr 1000 ------- 0 1.0 5.0 21 25
r 1.784 2 3 cbr 1000 ------- 0 1.0 5.0 13 15
+ 1.784 3 5 cbr 1000 ------- 0 1.0 5.0 13 15
- 1.784 3 5 cbr 1000 ------- 0 1.0 5.0 13 15
r 1.804 1 2 cbr 1000 ------- 0 1.0 5.0 20 24
+ 1.804 2 3 cbr 1000 ------- 0 1.0 5.0 20 24
- 1.804 2 3 cbr 1000 ------- 0 1.0 5.0 20 24
r 1.808 3 5 cbr 1000 ------- 0 1.0 5.0 12 14
+ 1.86 1 2 cbr 1000 ------- 0 1.0 5.0 22 26
- 1.86 1 2 cbr 1000 ------- 0 1.0 5.0 22 26
r 1.864 2 3 cbr 1000 ------- 0 1.0 5.0 14 16
+ 1.864 3 5 cbr 1000 ------- 0 1.0 5.0 14 16
- 1.864 3 5 cbr 1000 ------- 0 1.0 5.0 14 16
r 1.884 1 2 cbr 1000 ------- 0 1.0 5.0 21 25
+ 1.884 2 3 cbr 1000 ------- 0 1.0 5.0 21 25
- 1.884 2 3 cbr 1000 ------- 0 1.0 5.0 21 25
r 1.888 3 5 cbr 1000 ------- 0 1.0 5.0 13 15
+ 1.94 1 2 cbr 1000 ------- 0 1.0 5.0 23 27
- 1.94 1 2 cbr 1000 ------- 0 1.0 5.0 23 27
r 1.944 2 3 cbr 1000 ------- 0 1.0 5.0 15 17
+ 1.944 3 5 cbr 1000 ------- 0 1.0 5.0 15 17
- 1.944 3 5 cbr 1000 ------- 0 1.0 5.0 15 17
r 1.964 1 2 cbr 1000 ------- 0 1.0 5.0 22 26
+ 1.964 2 3 cbr 1000 ------- 0 1.0 5.0 22 26
- 1.964 2 3 cbr 1000 ------- 0 1.0 5.0 22 26
r 1.968 3 5 cbr 1000 ------- 0 1.0 5.0 14 16
+ 2.02 1 2 cbr 1000 ------- 0 1.0 5.0 24 28
- 2.02 1 2 cbr 1000 ------- 0 1.0 5.0 24 28
r 2.024 2 3 cbr 1000 ------- 0 1.0 5.0 16 18
+ 2.024 3 5 cbr 1000 ------- 0 1.0 5.0 16 18
- 2.024 3 5 cbr 1000 ------- 0 1.0 5.0 16 18
r 2.044 1 2 cbr 1000 ------- 0 1.0 5.0 23 27
+ 2.044 2 3 cbr 1000 ------- 0 1.0 5.0 23 27
- 2.044 2 3 cbr 1000 ------- 0 1.0 5.0 23 27
r 2.048 3 5 cbr 1000 ------- 0 1.0 5.0 15 17
+ 2.1 1 2 cbr 1000 ------- 0 1.0 5.0 25 29
- 2.1 1 2 cbr 1000 ------- 0 1.0 5.0 25 29
r 2.104 2 3 cbr 1000 ------- 0 1.0 5.0 17 19
+ 2.104 3 5 cbr 1000 ------- 0 1.0 5.0 17 19
- 2.104 3 5 cbr 1000 ------- 0 1.0 5.0 17 19
r 2.124 1 2 cbr 1000 ------- 0 1.0 5.0 24 28
+ 2.124 2 3 cbr 1000 ------- 0 1.0 5.0 24 28
- 2.124 2 3 cbr 1000 ------- 0 1.0 5.0 24 28
r 2.128 3 5 cbr 1000 ------- 0 1.0 5.0 16 18
r 2.1496 2 3 tcp 1040 ------- 0 0.0 4.0 1 20
+ 2.1496 3 4 tcp 1040 ------- 0 0.0 4.0 1 20
- 2.1496 3 4 tcp 1040 ------- 0 0.0 4.0 1 20
+ 2.18 1 2 cbr 1000 ------- 0 1.0 5.0 26 30
- 2.18 1 2 cbr 1000 ------- 0 1.0 5.0 26 30
r 2.1912 2 3 tcp 1040 ------- 0 0.0 4.0 2 21
+ 2.1912 3 4 tcp 1040 ------- 0 0.0 4.0 2 21
- 2.1912 3 4 tcp 1040 ------- 0 0.0 4.0 2 21
r 2.204 1 2 cbr 1000 ------- 0 1.0 5.0 25 29
+ 2.204 2 3 cbr 1000 ------- 0 1.0 5.0 25 29
- 2.204 2 3 cbr 1000 ------- 0 1.0 5.0 25 29
r 2.208 3 5 cbr 1000 ------- 0 1.0 5.0 17 19
r 2.2312 2 3 cbr 1000 ------- 0 1.0 5.0 18 22
+ 2.2312 3 5 cbr 1000 ------- 0 1.0 5.0 18 22
- 2.2312 3 5 cbr 1000 ------- 0 1.0 5.0 18 22
r 2.25376 3 4 tcp 1040 ------- 0 0.0 4.0 1 20
+ 2.25376 4 3 ack 40 ------- 0 4.0 0.0 1 31
- 2.25376 4 3 ack 40 ------- 0 4.0 0.0 1 31
+ 2.26 1 2 cbr 1000 ------- 0 1.0 5.0 27 32
- 2.26 1 2 cbr 1000 ------- 0 1.0 5.0 27 32
r 2.2712 2 3 cbr 1000 ------- 0 1.0 5.0 19 23
+ 2.2712 3 5 cbr 1000 ------- 0 1.0 5.0 19 23
- 2.2712 3 5 cbr 1000 ------- 0 1.0 5.0 19 23
r 2.284 1 2 cbr 1000 ------- 0 1.0 5.0 26 30
+ 2.284 2 3 cbr 1000 ------- 0 1.0 5.0 26 30
- 2.284 2 3 cbr 1000 ------- 0 1.0 5.0 26 30
r 2.29536 3 4 tcp 1040 ------- 0 0.0 4.0 2 21
+ 2.29536 4 3 ack 40 ------- 0 4.0 0.0 2 33
- 2.29536 4 3 ack 40 ------- 0 4.0 0.0 2 33
r 2.3352 3 5 cbr 1000 ------- 0 1.0 5.0 18 22
+ 2.34 1 2 cbr 1000 ------- 0 1.0 5.0 28 34
- 2.34 1 2 cbr 1000 ------- 0 1.0 5.0 28 34
r 2.344 2 3 cbr 1000 ------- 0 1.0 5.0 20 24
+ 2.344 3 5 cbr 1000 ------- 0 1.0 5.0 20 24
- 2.344 3 5 cbr 1000 ------- 0 1.0 5.0 20 24
r 2.35392 4 3 ack 40 ------- 0 4.0 0.0 1 31
+ 2.35392 3 2 ack 40 ------- 0 4.0 0.0 1 31
- 2.35392 3 2 ack 40 ------- 0 4.0 0.0 1 31
r 2.364 1 2 cbr 1000 ------- 0 1.0 5.0 27 32
+ 2.364 2 3 cbr 1000 ------- 0 1.0 5.0 27 32
- 2.364 2 3 cbr 1000 ------- 0 1.0 5.0 27 32
r 2.3752 3 5 cbr 1000 ------- 0 1.0 5.0 19 23
r 2.39552 4 3 ack 40 ------- 0 4.0 0.0 2 33
+ 2.39552 3 2 ack 40 ------- 0 4.0 0.0 2 33
- 2.39552 3 2 ack 40 ------- 0 4.0 0.0 2 33
+ 2.42 1 2 cbr 1000 ------- 0 1.0 5.0 29 35
- 2.42 1 2 cbr 1000 ------- 0 1.0 5.0 29 35
r 2.424 2 3 cbr 1000 ------- 0 1.0 5.0 21 25
+ 2.424 3 5 cbr 1000 ------- 0 1.0 5.0 21 25
- 2.424 3 5 cbr 1000 ------- 0 1.0 5.0 21 25
r 2.444 1 2 cbr 1000 ------- 0 1.0 5.0 28 34
+ 2.444 2 3 cbr 1000 ------- 0 1.0 5.0 28 34
- 2.444 2 3 cbr 1000 ------- 0 1.0 5.0 28 34
r 2.448 3 5 cbr 1000 ------- 0 1.0 5.0 20 24
+ 2.5 1 2 cbr 1000 ------- 0 1.0 5.0 30 36
- 2.5 1 2 cbr 1000 ------- 0 1.0 5.0 30 36
r 2.504 2 3 cbr 1000 ------- 0 1.0 5.0 22 26
+ 2.504 3 5 cbr 1000 ------- 0 1.0 5.0 22 26
- 2.504 3 5 cbr 1000 ------- 0 1.0 5.0 22 26
r 2.524 1 2 cbr 1000 ------- 0 1.0 5.0 29 35
+ 2.524 2 3 cbr 1000 ------- 0 1.0 5.0 29 35
- 2.524 2 3 cbr 1000 ------- 0 1.0 5.0 29 35
r 2.528 3 5 cbr 1000 ------- 0 1.0 5.0 21 25
+ 2.58 1 2 cbr 1000 ------- 0 1.0 5.0 31 37
- 2.58 1 2 cbr 1000 ------- 0 1.0 5.0 31 37
r 2.584 2 3 cbr 1000 ------- 0 1.0 5.0 23 27
+ 2.584 3 5 cbr 1000 ------- 0 1.0 5.0 23 27
- 2.584 3 5 cbr 1000 ------- 0 1.0 5.0 23 27
r 2.604 1 2 cbr 1000 ------- 0 1.0 5.0 30 36
+ 2.604 2 3 cbr 1000 ------- 0 1.0 5.0 30 36
- 2.604 2 3 cbr 1000 ------- 0 1.0 5.0 30 36
r 2.608 3 5 cbr 1000 ------- 0 1.0 5.0 22 26
+ 2.66 1 2 cbr 1000 ------- 0 1.0 5.0 32 38
- 2.66 1 2 cbr 1000 ------- 0 1.0 5.0 32 38
r 2.664 2 3 cbr 1000 ------- 0 1.0 5.0 24 28
+ 2.664 3 5 cbr 1000 ------- 0 1.0 5.0 24 28
- 2.664 3 5 cbr 1000 ------- 0 1.0 5.0 24 28
r 2.684 1 2 cbr 1000 ------- 0 1.0 5.0 31 37
+ 2.684 2 3 cbr 1000 ------- 0 1.0 5.0 31 37
- 2.684 2 3 cbr 1000 ------- 0 1.0 5.0 31 37
r 2.688 3 5 cbr 1000 ------- 0 1.0 5.0 23 27
+ 2.74 1 2 cbr 1000 ------- 0 1.0 5.0 33 39
- 2.74 1 2 cbr 1000 ------- 0 1.0 5.0 33 39
r 2.744 2 3 cbr 1000 ------- 0 1.0 5.0 25 29
+ 2.744 3 5 cbr 1000 ------- 0 1.0 5.0 25 29
- 2.744 3 5 cbr 1000 ------- 0 1.0 5.0 25 29
r 2.764 1 2 cbr 1000 ------- 0 1.0 5.0 32 38
+ 2.764 2 3 cbr 1000 ------- 0 1.0 5.0 32 38
- 2.764 2 3 cbr 1000 ------- 0 1.0 5.0 32 38
r 2.768 3 5 cbr 1000 ------- 0 1.0 5.0 24 28
+ 2.82 1 2 cbr 1000 ------- 0 1.0 5.0 34 40
- 2.82 1 2 cbr 1000 ------- 0 1.0 5.0 34 40
r 2.824 2 3 cbr 1000 ------- 0 1.0 5.0 26 30
+ 2.824 3 5 cbr 1000 ------- 0 1.0 5.0 26 30
- 2.824 3 5 cbr 1000 ------- 0 1.0 5.0 26 30
r 2.844 1 2 cbr 1000 ------- 0 1.0 5.0 33 39
+ 2.844 2 3 cbr 1000 ------- 0 1.0 5.0 33 39
- 2.844 2 3 cbr 1000 ------- 0 1.0 5.0 33 39
r 2.848 3 5 cbr 1000 ------- 0 1.0 5.0 25 29
r 2.85552 3 2 ack 40 ------- 0 4.0 0.0 1 31
+ 2.85552 2 0 ack 40 ------- 0 4.0 0.0 1 31
- 2.85552 2 0 ack 40 ------- 0 4.0 0.0 1 31
r 2.89712 3 2 ack 40 ------- 0 4.0 0.0 2 33
+ 2.89712 2 0 ack 40 ------- 0 4.0 0.0 2 33
- 2.89712 2 0 ack 40 ------- 0 4.0 0.0 2 33
+ 2.9 1 2 cbr 1000 ------- 0 1.0 5.0 35 41
- 2.9 1 2 cbr 1000 ------- 0 1.0 5.0 35 41
r 2.904 2 3 cbr 1000 ------- 0 1.0 5.0 27 32
+ 2.904 3 5 cbr 1000 ------- 0 1.0 5.0 27 32
- 2.904 3 5 cbr 1000 ------- 0 1.0 5.0 27 32
r 2.924 1 2 cbr 1000 ------- 0 1.0 5.0 34 40
+ 2.924 2 3 cbr 1000 ------- 0 1.0 5.0 34 40
- 2.924 2 3 cbr 1000 ------- 0 1.0 5.0 34 40
r 2.928 3 5 cbr 1000 ------- 0 1.0 5.0 26 30
r 2.95568 2 0 ack 40 ------- 0 4.0 0.0 1 31
+ 2.95568 0 2 tcp 1040 ------- 0 0.0 4.0 3 42
- 2.95568 0 2 tcp 1040 ------- 0 0.0 4.0 3 42
+ 2.95568 0 2 tcp 1040 ------- 0 0.0 4.0 4 43
- 2.95984 0 2 tcp 1040 ------- 0 0.0 4.0 4 43
+ 2.98 1 2 cbr 1000 ------- 0 1.0 5.0 36 44
- 2.98 1 2 cbr 1000 ------- 0 1.0 5.0 36 44
r 2.984 2 3 cbr 1000 ------- 0 1.0 5.0 28 34
+ 2.984 3 5 cbr 1000 ------- 0 1.0 5.0 28 34
- 2.984 3 5 cbr 1000 ------- 0 1.0 5.0 28 34
r 2.99728 2 0 ack 40 ------- 0 4.0 0.0 2 33
+ 2.99728 0 2 tcp 1040 ------- 0 0.0 4.0 5 45
- 2.99728 0 2 tcp 1040 ------- 0 0.0 4.0 5 45
+ 2.99728 0 2 tcp 1040 ------- 0 0.0 4.0 6 46
- 3.00144 0 2 tcp 1040 ------- 0 0.0 4.0 6 46
r 3.004 1 2 cbr 1000 ------- 0 1.0 5.0 35 41
+ 3.004 2 3 cbr 1000 ------- 0 1.0 5.0 35 41
- 3.004 2 3 cbr 1000 ------- 0 1.0 5.0 35 41
r 3.008 3 5 cbr 1000 ------- 0 1.0 5.0 27 32
r 3.05984 0 2 tcp 1040 ------- 0 0.0 4.0 3 42
+ 3.05984 2 3 tcp 1040 ------- 0 0.0 4.0 3 42
- 3.05984 2 3 tcp 1040 ------- 0 0.0 4.0 3 42
+ 3.06 1 2 cbr 1000 ------- 0 1.0 5.0 37 47
- 3.06 1 2 cbr 1000 ------- 0 1.0 5.0 37 47
r 3.064 0 2 tcp 1040 ------- 0 0.0 4.0 4 43
+ 3.064 2 3 tcp 1040 ------- 0 0.0 4.0 4 43
r 3.064 2 3 cbr 1000 ------- 0 1.0 5.0 29 35
+ 3.064 3 5 cbr 1000 ------- 0 1.0 5.0 29 35
- 3.064 3 5 cbr 1000 ------- 0 1.0 5.0 29 35
r 3.084 1 2 cbr 1000 ------- 0 1.0 5.0 36 44
+ 3.084 2 3 cbr 1000 ------- 0 1.0 5.0 36 44
r 3.088 3 5 cbr 1000 ------- 0 1.0 5.0 28 34
- 3.10144 2 3 tcp 1040 ------- 0 0.0 4.0 4 43
r 3.10144 0 2 tcp 1040 ------- 0 0.0 4.0 5 45
+ 3.10144 2 3 tcp 1040 ------- 0 0.0 4.0 5 45
r 3.1056 0 2 tcp 1040 ------- 0 0.0 4.0 6 46
+ 3.1056 2 3 tcp 1040 ------- 0 0.0 4.0 6 46
+ 3.14 1 2 cbr 1000 ------- 0 1.0 5.0 38 48
- 3.14 1 2 cbr 1000 ------- 0 1.0 5.0 38 48
- 3.14304 2 3 cbr 1000 ------- 0 1.0 5.0 36 44
r 3.144 2 3 cbr 1000 ------- 0 1.0 5.0 30 36
+ 3.144 3 5 cbr 1000 ------- 0 1.0 5.0 30 36
- 3.144 3 5 cbr 1000 ------- 0 1.0 5.0 30 36
r 3.164 1 2 cbr 1000 ------- 0 1.0 5.0 37 47
+ 3.164 2 3 cbr 1000 ------- 0 1.0 5.0 37 47
r 3.168 3 5 cbr 1000 ------- 0 1.0 5.0 29 35
- 3.18304 2 3 tcp 1040 ------- 0 0.0 4.0 5 45
+ 3.22 1 2 cbr 1000 ------- 0 1.0 5.0 39 49
- 3.22 1 2 cbr 1000 ------- 0 1.0 5.0 39 49
r 3.224 2 3 cbr 1000 ------- 0 1.0 5.0 31 37
+ 3.224 3 5 cbr 1000 ------- 0 1.0 5.0 31 37
- 3.224 3 5 cbr 1000 ------- 0 1.0 5.0 31 37
- 3.22464 2 3 tcp 1040 ------- 0 0.0 4.0 6 46
r 3.244 1 2 cbr 1000 ------- 0 1.0 5.0 38 48
+ 3.244 2 3 cbr 1000 ------- 0 1.0 5.0 38 48
r 3.248 3 5 cbr 1000 ------- 0 1.0 5.0 30 36
- 3.26624 2 3 cbr 1000 ------- 0 1.0 5.0 37 47
+ 3.3 1 2 cbr 1000 ------- 0 1.0 5.0 40 50
- 3.3 1 2 cbr 1000 ------- 0 1.0 5.0 40 50
r 3.304 2 3 cbr 1000 ------- 0 1.0 5.0 32 38
+ 3.304 3 5 cbr 1000 ------- 0 1.0 5.0 32 38
- 3.304 3 5 cbr 1000 ------- 0 1.0 5.0 32 38
- 3.30624 2 3 cbr 1000 ------- 0 1.0 5.0 38 48
r 3.324 1 2 cbr 1000 ------- 0 1.0 5.0 39 49
+ 3.324 2 3 cbr 1000 ------- 0 1.0 5.0 39 49
r 3.328 3 5 cbr 1000 ------- 0 1.0 5.0 31 37
- 3.34624 2 3 cbr 1000 ------- 0 1.0 5.0 39 49
+ 3.38 1 2 cbr 1000 ------- 0 1.0 5.0 41 51
- 3.38 1 2 cbr 1000 ------- 0 1.0 5.0 41 51
r 3.384 2 3 cbr 1000 ------- 0 1.0 5.0 33 39
+ 3.384 3 5 cbr 1000 ------- 0 1.0 5.0 33 39
- 3.384 3 5 cbr 1000 ------- 0 1.0 5.0 33 39
r 3.404 1 2 cbr 1000 ------- 0 1.0 5.0 40 50
+ 3.404 2 3 cbr 1000 ------- 0 1.0 5.0 40 50
- 3.404 2 3 cbr 1000 ------- 0 1.0 5.0 40 50
r 3.408 3 5 cbr 1000 ------- 0 1.0 5.0 32 38
+ 3.46 1 2 cbr 1000 ------- 0 1.0 5.0 42 52
- 3.46 1 2 cbr 1000 ------- 0 1.0 5.0 42 52
r 3.464 2 3 cbr 1000 ------- 0 1.0 5.0 34 40
+ 3.464 3 5 cbr 1000 ------- 0 1.0 5.0 34 40
- 3.464 3 5 cbr 1000 ------- 0 1.0 5.0 34 40
r 3.484 1 2 cbr 1000 ------- 0 1.0 5.0 41 51
+ 3.484 2 3 cbr 1000 ------- 0 1.0 5.0 41 51
- 3.484 2 3 cbr 1000 ------- 0 1.0 5.0 41 51
r 3.488 3 5 cbr 1000 ------- 0 1.0 5.0 33 39
+ 3.54 1 2 cbr 1000 ------- 0 1.0 5.0 43 53
- 3.54 1 2 cbr 1000 ------- 0 1.0 5.0 43 53
r 3.544 2 3 cbr 1000 ------- 0 1.0 5.0 35 41
+ 3.544 3 5 cbr 1000 ------- 0 1.0 5.0 35 41
- 3.544 3 5 cbr 1000 ------- 0 1.0 5.0 35 41
r 3.564 1 2 cbr 1000 ------- 0 1.0 5.0 42 52
+ 3.564 2 3 cbr 1000 ------- 0 1.0 5.0 42 52
- 3.564 2 3 cbr 1000 ------- 0 1.0 5.0 42 52
r 3.568 3 5 cbr 1000 ------- 0 1.0 5.0 34 40
r 3.60144 2 3 tcp 1040 ------- 0 0.0 4.0 3 42
+ 3.60144 3 4 tcp 1040 ------- 0 0.0 4.0 3 42
- 3.60144 3 4 tcp 1040 ------- 0 0.0 4.0 3 42
+ 3.62 1 2 cbr 1000 ------- 0 1.0 5.0 44 54
- 3.62 1 2 cbr 1000 ------- 0 1.0 5.0 44 54
r 3.64304 2 3 tcp 1040 ------- 0 0.0 4.0 4 43
+ 3.64304 3 4 tcp 1040 ------- 0 0.0 4.0 4 43
- 3.64304 3 4 tcp 1040 ------- 0 0.0 4.0 4 43
r 3.644 1 2 cbr 1000 ------- 0 1.0 5.0 43 53
+ 3.644 2 3 cbr 1000 ------- 0 1.0 5.0 43 53
- 3.644 2 3 cbr 1000 ------- 0 1.0 5.0 43 53
r 3.648 3 5 cbr 1000 ------- 0 1.0 5.0 35 41
r 3.68304 2 3 cbr 1000 ------- 0 1.0 5.0 36 44
+ 3.68304 3 5 cbr 1000 ------- 0 1.0 5.0 36 44
- 3.68304 3 5 cbr 1000 ------- 0 1.0 5.0 36 44
+ 3.7 1 2 cbr 1000 ------- 0 1.0 5.0 45 55
- 3.7 1 2 cbr 1000 ------- 0 1.0 5.0 45 55
r 3.7056 3 4 tcp 1040 ------- 0 0.0 4.0 3 42
+ 3.7056 4 3 ack 40 ------- 0 4.0 0.0 3 56
- 3.7056 4 3 ack 40 ------- 0 4.0 0.0 3 56
r 3.724 1 2 cbr 1000 ------- 0 1.0 5.0 44 54
+ 3.724 2 3 cbr 1000 ------- 0 1.0 5.0 44 54
- 3.724 2 3 cbr 1000 ------- 0 1.0 5.0 44 54
r 3.72464 2 3 tcp 1040 ------- 0 0.0 4.0 5 45
+ 3.72464 3 4 tcp 1040 ------- 0 0.0 4.0 5 45
- 3.72464 3 4 tcp 1040 ------- 0 0.0 4.0 5 45
r 3.7472 3 4 tcp 1040 ------- 0 0.0 4.0 4 43
+ 3.7472 4 3 ack 40 ------- 0 4.0 0.0 4 57
- 3.7472 4 3 ack 40 ------- 0 4.0 0.0 4 57
r 3.76624 2 3 tcp 1040 ------- 0 0.0 4.0 6 46
+ 3.76624 3 4 tcp 1040 ------- 0 0.0 4.0 6 46
- 3.76624 3 4 tcp 1040 ------- 0 0.0 4.0 6 46
+ 3.78 1 2 cbr 1000 ------- 0 1.0 5.0 46 58
- 3.78 1 2 cbr 1000 ------- 0 1.0 5.0 46 58
r 3.78704 3 5 cbr 1000 ------- 0 1.0 5.0 36 44
r 3.804 1 2 cbr 1000 ------- 0 1.0 5.0 45 55
+ 3.804 2 3 cbr 1000 ------- 0 1.0 5.0 45 55
- 3.804 2 3 cbr 1000 ------- 0 1.0 5.0 45 55
r 3.80576 4 3 ack 40 ------- 0 4.0 0.0 3 56
+ 3.80576 3 2 ack 40 ------- 0 4.0 0.0 3 56
- 3.80576 3 2 ack 40 ------- 0 4.0 0.0 3 56
r 3.80624 2 3 cbr 1000 ------- 0 1.0 5.0 37 47
+ 3.80624 3 5 cbr 1000 ------- 0 1.0 5.0 37 47
- 3.80624 3 5 cbr 1000 ------- 0 1.0 5.0 37 47
r 3.8288 3 4 tcp 1040 ------- 0 0.0 4.0 5 45
+ 3.8288 4 3 ack 40 ------- 0 4.0 0.0 5 59
- 3.8288 4 3 ack 40 ------- 0 4.0 0.0 5 59
r 3.84624 2 3 cbr 1000 ------- 0 1.0 5.0 38 48
+ 3.84624 3 5 cbr 1000 ------- 0 1.0 5.0 38 48
- 3.84624 3 5 cbr 1000 ------- 0 1.0 5.0 38 48
r 3.84736 4 3 ack 40 ------- 0 4.0 0.0 4 57
+ 3.84736 3 2 ack 40 ------- 0 4.0 0.0 4 57
- 3.84736 3 2 ack 40 ------- 0 4.0 0.0 4 57
+ 3.86 1 2 cbr 1000 ------- 0 1.0 5.0 47 60
- 3.86 1 2 cbr 1000 ------- 0 1.0 5.0 47 60
r 3.8704 3 4 tcp 1040 ------- 0 0.0 4.0 6 46
+ 3.8704 4 3 ack 40 ------- 0 4.0 0.0 6 61
- 3.8704 4 3 ack 40 ------- 0 4.0 0.0 6 61
r 3.884 1 2 cbr 1000 ------- 0 1.0 5.0 46 58
+ 3.884 2 3 cbr 1000 ------- 0 1.0 5.0 46 58
- 3.884 2 3 cbr 1000 ------- 0 1.0 5.0 46 58
r 3.88624 2 3 cbr 1000 ------- 0 1.0 5.0 39 49
+ 3.88624 3 5 cbr 1000 ------- 0 1.0 5.0 39 49
- 3.88624 3 5 cbr 1000 ------- 0 1.0 5.0 39 49
r 3.91024 3 5 cbr 1000 ------- 0 1.0 5.0 37 47
r 3.92896 4 3 ack 40 ------- 0 4.0 0.0 5 59
+ 3.92896 3 2 ack 40 ------- 0 4.0 0.0 5 59
- 3.92896 3 2 ack 40 ------- 0 4.0 0.0 5 59
+ 3.94 1 2 cbr 1000 ------- 0 1.0 5.0 48 62
- 3.94 1 2 cbr 1000 ------- 0 1.0 5.0 48 62
r 3.944 2 3 cbr 1000 ------- 0 1.0 5.0 40 50
+ 3.944 3 5 cbr 1000 ------- 0 1.0 5.0 40 50
- 3.944 3 5 cbr 1000 ------- 0 1.0 5.0 40 50
r 3.95024 3 5 cbr 1000 ------- 0 1.0 5.0 38 48
r 3.964 1 2 cbr 1000 ------- 0 1.0 5.0 47 60
+ 3.964 2 3 cbr 1000 ------- 0 1.0 5.0 47 60
- 3.964 2 3 cbr 1000 ------- 0 1.0 5.0 47 60
r 3.97056 4 3 ack 40 ------- 0 4.0 0.0 6 61
+ 3.97056 3 2 ack 40 ------- 0 4.0 0.0 6 61
- 3.97056 3 2 ack 40 ------- 0 4.0 0.0 6 61
r 3.99024 3 5 cbr 1000 ------- 0 1.0 5.0 39 49
+ 4.02 1 2 cbr 1000 ------- 0 1.0 5.0 49 63
- 4.02 1 2 cbr 1000 ------- 0 1.0 5.0 49 63
r 4.024 2 3 cbr 1000 ------- 0 1.0 5.0 41 51
+ 4.024 3 5 cbr 1000 ------- 0 1.0 5.0 41 51
- 4.024 3 5 cbr 1000 ------- 0 1.0 5.0 41 51
r 4.044 1 2 cbr 1000 ------- 0 1.0 5.0 48 62
+ 4.044 2 3 cbr 1000 ------- 0 1.0 5.0 48 62
- 4.044 2 3 cbr 1000 ------- 0 1.0 5.0 48 62
r 4.048 3 5 cbr 1000 ------- 0 1.0 5.0 40 50
+ 4.1 1 2 cbr 1000 ------- 0 1.0 5.0 50 64
- 4.1 1 2 cbr 1000 ------- 0 1.0 5.0 50 64
r 4.104 2 3 cbr 1000 ------- 0 1.0 5.0 42 52
+ 4.104 3 5 cbr 1000 ------- 0 1.0 5.0 42 52
- 4.104 3 5 cbr 1000 ------- 0 1.0 5.0 42 52
r 4.124 1 2 cbr 1000 ------- 0 1.0 5.0 49 63
+ 4.124 2 3 cbr 1000 ------- 0 1.0 5.0 49 63
- 4.124 2 3 cbr 1000 ------- 0 1.0 5.0 49 63
r 4.128 3 5 cbr 1000 ------- 0 1.0 5.0 41 51
+ 4.18 1 2 cbr 1000 ------- 0 1.0 5.0 51 65
- 4.18 1 2 cbr 1000 ------- 0 1.0 5.0 51 65
r 4.184 2 3 cbr 1000 ------- 0 1.0 5.0 43 53
+ 4.184 3 5 cbr 1000 ------- 0 1.0 5.0 43 53
- 4.184 3 5 cbr 1000 ------- 0 1.0 5.0 43 53
r 4.204 1 2 cbr 1000 ------- 0 1.0 5.0 50 64
+ 4.204 2 3 cbr 1000 ------- 0 1.0 5.0 50 64
- 4.204 2 3 cbr 1000 ------- 0 1.0 5.0 50 64
r 4.208 3 5 cbr 1000 ------- 0 1.0 5.0 42 52
+ 4.26 1 2 cbr 1000 ------- 0 1.0 5.0 52 66
- 4.26 1 2 cbr 1000 ------- 0 1.0 5.0 52 66
r 4.264 2 3 cbr 1000 ------- 0 1.0 5.0 44 54
+ 4.264 3 5 cbr 1000 ------- 0 1.0 5.0 44 54
- 4.264 3 5 cbr 1000 ------- 0 1.0 5.0 44 54
r 4.284 1 2 cbr 1000 ------- 0 1.0 5.0 51 65
+ 4.284 2 3 cbr 1000 ------- 0 1.0 5.0 51 65
- 4.284 2 3 cbr 1000 ------- 0 1.0 5.0 51 65
r 4.288 3 5 cbr 1000 ------- 0 1.0 5.0 43 53
r 4.30736 3 2 ack 40 ------- 0 4.0 0.0 3 56
+ 4.30736 2 0 ack 40 ------- 0 4.0 0.0 3 56
- 4.30736 2 0 ack 40 ------- 0 4.0 0.0 3 56
+ 4.34 1 2 cbr 1000 ------- 0 1.0 5.0 53 67
- 4.34 1 2 cbr 1000 ------- 0 1.0 5.0 53 67
r 4.344 2 3 cbr 1000 ------- 0 1.0 5.0 45 55
+ 4.344 3 5 cbr 1000 ------- 0 1.0 5.0 45 55
- 4.344 3 5 cbr 1000 ------- 0 1.0 5.0 45 55
r 4.34896 3 2 ack 40 ------- 0 4.0 0.0 4 57
+ 4.34896 2 0 ack 40 ------- 0 4.0 0.0 4 57
- 4.34896 2 0 ack 40 ------- 0 4.0 0.0 4 57
r 4.364 1 2 cbr 1000 ------- 0 1.0 5.0 52 66
+ 4.364 2 3 cbr 1000 ------- 0 1.0 5.0 52 66
- 4.364 2 3 cbr 1000 ------- 0 1.0 5.0 52 66
r 4.368 3 5 cbr 1000 ------- 0 1.0 5.0 44 54
r 4.40752 2 0 ack 40 ------- 0 4.0 0.0 3 56
+ 4.40752 0 2 tcp 1040 ------- 0 0.0 4.0 7 68
- 4.40752 0 2 tcp 1040 ------- 0 0.0 4.0 7 68
+ 4.40752 0 2 tcp 1040 ------- 0 0.0 4.0 8 69
- 4.41168 0 2 tcp 1040 ------- 0 0.0 4.0 8 69
+ 4.42 1 2 cbr 1000 ------- 0 1.0 5.0 54 70
- 4.42 1 2 cbr 1000 ------- 0 1.0 5.0 54 70
r 4.424 2 3 cbr 1000 ------- 0 1.0 5.0 46 58
+ 4.424 3 5 cbr 1000 ------- 0 1.0 5.0 46 58
- 4.424 3 5 cbr 1000 ------- 0 1.0 5.0 46 58
r 4.43056 3 2 ack 40 ------- 0 4.0 0.0 5 59
+ 4.43056 2 0 ack 40 ------- 0 4.0 0.0 5 59
- 4.43056 2 0 ack 40 ------- 0 4.0 0.0 5 59
r 4.444 1 2 cbr 1000 ------- 0 1.0 5.0 53 67
+ 4.444 2 3 cbr 1000 ------- 0 1.0 5.0 53 67
- 4.444 2 3 cbr 1000 ------- 0 1.0 5.0 53 67
r 4.448 3 5 cbr 1000 ------- 0 1.0 5.0 45 55
r 4.44912 2 0 ack 40 ------- 0 4.0 0.0 4 57
+ 4.44912 0 2 tcp 1040 ------- 0 0.0 4.0 9 71
- 4.44912 0 2 tcp 1040 ------- 0 0.0 4.0 9 71
+ 4.44912 0 2 tcp 1040 ------- 0 0.0 4.0 10 72
- 4.45328 0 2 tcp 1040 ------- 0 0.0 4.0 10 72
r 4.47216 3 2 ack 40 ------- 0 4.0 0.0 6 61
+ 4.47216 2 0 ack 40 ------- 0 4.0 0.0 6 61
- 4.47216 2 0 ack 40 ------- 0 4.0 0.0 6 61
+ 4.5 1 2 cbr 1000 ------- 0 1.0 5.0 55 73
- 4.5 1 2 cbr 1000 ------- 0 1.0 5.0 55 73
r 4.504 2 3 cbr 1000 ------- 0 1.0 5.0 47 60
+ 4.504 3 5 cbr 1000 ------- 0 1.0 5.0 47 60
- 4.504 3 5 cbr 1000 ------- 0 1.0 5.0 47 60
r 4.51168 0 2 tcp 1040 ------- 0 0.0 4.0 7 68
+ 4.51168 2 3 tcp 1040 ------- 0 0.0 4.0 7 68
- 4.51168 2 3 tcp 1040 ------- 0 0.0 4.0 7 68
r 4.51584 0 2 tcp 1040 ------- 0 0.0 4.0 8 69
+ 4.51584 2 3 tcp 1040 ------- 0 0.0 4.0 8 69
r 4.524 1 2 cbr 1000 ------- 0 1.0 5.0 54 70
+ 4.524 2 3 cbr 1000 ------- 0 1.0 5.0 54 70
r 4.528 3 5 cbr 1000 ------- 0 1.0 5.0 46 58
r 4.53072 2 0 ack 40 ------- 0 4.0 0.0 5 59
+ 4.53072 0 2 tcp 1040 ------- 0 0.0 4.0 11 74
- 4.53072 0 2 tcp 1040 ------- 0 0.0 4.0 11 74
+ 4.53072 0 2 tcp 1040 ------- 0 0.0 4.0 12 75
- 4.53488 0 2 tcp 1040 ------- 0 0.0 4.0 12 75
r 4.55328 0 2 tcp 1040 ------- 0 0.0 4.0 9 71
+ 4.55328 2 3 tcp 1040 ------- 0 0.0 4.0 9 71
- 4.55328 2 3 tcp 1040 ------- 0 0.0 4.0 8 69
r 4.55744 0 2 tcp 1040 ------- 0 0.0 4.0 10 72
+ 4.55744 2 3 tcp 1040 ------- 0 0.0 4.0 10 72
r 4.57232 2 0 ack 40 ------- 0 4.0 0.0 6 61
+ 4.57232 0 2 tcp 1040 ------- 0 0.0 4.0 13 76
- 4.57232 0 2 tcp 1040 ------- 0 0.0 4.0 13 76
+ 4.57232 0 2 tcp 1040 ------- 0 0.0 4.0 14 77
- 4.57648 0 2 tcp 1040 ------- 0 0.0 4.0 14 77
+ 4.58 1 2 cbr 1000 ------- 0 1.0 5.0 56 78
- 4.58 1 2 cbr 1000 ------- 0 1.0 5.0 56 78
r 4.584 2 3 cbr 1000 ------- 0 1.0 5.0 48 62
+ 4.584 3 5 cbr 1000 ------- 0 1.0 5.0 48 62
- 4.584 3 5 cbr 1000 ------- 0 1.0 5.0 48 62
- 4.59488 2 3 cbr 1000 ------- 0 1.0 5.0 54 70
r 4.604 1 2 cbr 1000 ------- 0 1.0 5.0 55 73
+ 4.604 2 3 cbr 1000 ------- 0 1.0 5.0 55 73
r 4.608 3 5 cbr 1000 ------- 0 1.0 5.0 47 60
r 4.63488 0 2 tcp 1040 ------- 0 0.0 4.0 11 74
+ 4.63488 2 3 tcp 1040 ------- 0 0.0 4.0 11 74
- 4.63488 2 3 tcp 1040 ------- 0 0.0 4.0 9 71
r 4.63904 0 2 tcp 1040 ------- 0 0.0 4.0 12 75
+ 4.63904 2 3 tcp 1040 ------- 0 0.0 4.0 12 75
+ 4.66 1 2 cbr 1000 ------- 0 1.0 5.0 57 79
- 4.66 1 2 cbr 1000 ------- 0 1.0 5.0 57 79
r 4.664 2 3 cbr 1000 ------- 0 1.0 5.0 49 63
+ 4.664 3 5 cbr 1000 ------- 0 1.0 5.0 49 63
- 4.664 3 5 cbr 1000 ------- 0 1.0 5.0 49 63
r 4.67648 0 2 tcp 1040 ------- 0 0.0 4.0 13 76
+ 4.67648 2 3 tcp 1040 ------- 0 0.0 4.0 13 76
- 4.67648 2 3 tcp 1040 ------- 0 0.0 4.0 10 72
r 4.68064 0 2 tcp 1040 ------- 0 0.0 4.0 14 77
+ 4.68064 2 3 tcp 1040 ------- 0 0.0 4.0 14 77
r 4.684 1 2 cbr 1000 ------- 0 1.0 5.0 56 78
+ 4.684 2 3 cbr 1000 ------- 0 1.0 5.0 56 78
d 4.684 2 3 cbr 1000 ------- 0 1.0 5.0 56 78
r 4.688 3 5 cbr 1000 ------- 0 1.0 5.0 48 62
- 4.71808 2 3 cbr 1000 ------- 0 1.0 5.0 55 73
+ 4.74 1 2 cbr 1000 ------- 0 1.0 5.0 58 80
- 4.74 1 2 cbr 1000 ------- 0 1.0 5.0 58 80
r 4.744 2 3 cbr 1000 ------- 0 1.0 5.0 50 64
+ 4.744 3 5 cbr 1000 ------- 0 1.0 5.0 50 64
- 4.744 3 5 cbr 1000 ------- 0 1.0 5.0 50 64
- 4.75808 2 3 tcp 1040 ------- 0 0.0 4.0 11 74
r 4.764 1 2 cbr 1000 ------- 0 1.0 5.0 57 79
+ 4.764 2 3 cbr 1000 ------- 0 1.0 5.0 57 79
r 4.768 3 5 cbr 1000 ------- 0 1.0 5.0 49 63
- 4.79968 2 3 tcp 1040 ------- 0 0.0 4.0 12 75
+ 4.82 1 2 cbr 1000 ------- 0 1.0 5.0 59 81
- 4.82 1 2 cbr 1000 ------- 0 1.0 5.0 59 81
r 4.824 2 3 cbr 1000 ------- 0 1.0 5.0 51 65
+ 4.824 3 5 cbr 1000 ------- 0 1.0 5.0 51 65
- 4.824 3 5 cbr 1000 ------- 0 1.0 5.0 51 65
- 4.84128 2 3 tcp 1040 ------- 0 0.0 4.0 13 76
r 4.844 1 2 cbr 1000 ------- 0 1.0 5.0 58 80
+ 4.844 2 3 cbr 1000 ------- 0 1.0 5.0 58 80
r 4.848 3 5 cbr 1000 ------- 0 1.0 5.0 50 64
- 4.88288 2 3 tcp 1040 ------- 0 0.0 4.0 14 77
+ 4.9 1 2 cbr 1000 ------- 0 1.0 5.0 60 82
- 4.9 1 2 cbr 1000 ------- 0 1.0 5.0 60 82
r 4.904 2 3 cbr 1000 ------- 0 1.0 5.0 52 66
+ 4.904 3 5 cbr 1000 ------- 0 1.0 5.0 52 66