+ 0.1 0 2 tcp 40 ------- 0 0.0 4.0 0 0
- 0.1 0 2 tcp 40 ------- 0 0.0 4.0 0 0
+ 0.1 1 2 cbr 1000 ------- 0 1.0 5.0 0 1
- 0.1 1 2 cbr 1000 ------- 0 1.0 5.0 0 1
r 0.20016 0 2 tcp 40 ------- 0 0.0 4.0 0 0
+ 0.20016 2 3 tcp 40 ------- 0 0.0 4.0 0 0
- 0.20016 2 3 tcp 40 ------- 0 0.0 4.0 0 0
r 0.204 1 2 cbr 1000 ------- 0 1.0 5.0 0 1
+ 0.204 2 3 cbr 1000 ------- 0 1.0 5.0 0 1
- 0.204 2 3 cbr 1000 ------- 0 1.0 5.0 0 1
+ 0.26 1 2 cbr 1000 ------- 0 1.0 5.0 1 2
- 0.26 1 2 cbr 1000 ------- 0 1.0 5.0 1 2
r 0.364 1 2 cbr 1000 ------- 0 1.0 5.0 1 2
+ 0.364 2 3 cbr 1000 ------- 0 1.0 5.0 1 2
- 0.364 2 3 cbr 1000 ------- 0 1.0 5.0 1 2
+ 0.42 1 2 cbr 1000 ------- 0 1.0 5.0 2 3
- 0.42 1 2 cbr 1000 ------- 0 1.0 5.0 2 3
r 0.524 1 2 cbr 1000 ------- 0 1.0 5.0 2 3
+ 0.524 2 3 cbr 1000 ------- 0 1.0 5.0 2 3
- 0.524 2 3 cbr 1000 ------- 0 1.0 5.0 2 3
+ 0.58 1 2 cbr 1000 ------- 0 1.0 5.0 3 4
- 0.58 1 2 cbr 1000 ------- 0 1.0 5.0 3 4
r 0.684 1 2 cbr 1000 ------- 0 1.0 5.0 3 4
+ 0.684 2 3 cbr 1000 ------- 0 1.0 5.0 3 4
- 0.684 2 3 cbr 1000 ------- 0 1.0 5.0 3 4
r 0.70176 2 3 tcp 40 ------- 0 0.0 4.0 0 0
+ 0.70176 3 4 tcp 40 ------- 0 0.0 4.0 0 0
- 0.70176 3 4 tcp 40 ------- 0 0.0 4.0 0 0
+ 0.74 1 2 cbr 1000 ------- 0 1.0 5.0 4 5
- 0.74 1 2 cbr 1000 ------- 0 1.0 5.0 4 5
r 0.744 2 3 cbr 1000 ------- 0 1.0 5.0 0 1
+ 0.744 3 5 cbr 1000 ------- 0 1.0 5.0 0 1
- 0.744 3 5 cbr 1000 ------- 0 1.0 5.0 0 1
r 0.80192 3 4 tcp 40 ------- 0 0.0 4.0 0 0
+ 0.80192 4 3 ack 40 ------- 0 4.0 0.0 0 6
- 0.80192 4 3 ack 40 ------- 0 4.0 0.0 0 6
r 0.844 1 2 cbr 1000 ------- 0 1.0 5.0 4 5
+ 0.844 2 3 cbr 1000 ------- 0 1.0 5.0 4 5
- 0.844 2 3 cbr 1000 ------- 0 1.0 5.0 4 5
r 0.848 3 5 cbr 1000 ------- 0 1.0 5.0 0 1
+ 0.9 1 2 cbr 1000 ------- 0 1.0 5.0 5 7
- 0.9 1 2 cbr 1000 ------- 0 1.0 5.0 5 7
r 0.90208 4 3 ack 40 ------- 0 4.0 0.0 0 6
+ 0.90208 3 2 ack 40 ------- 0 4.0 0.0 0 6
- 0.90208 3 2 ack 40 ------- 0 4.0 0.0 0 6
r 0.904 2 3 cbr 1000 ------- 0 1.0 5.0 1 2
+ 0.904 3 5 cbr 1000 ------- 0 1.0 5.0 1 2
- 0.904 3 5 cbr 1000 ------- 0 1.0 5.0 1 2
r 1.004 1 2 cbr 1000 ------- 0 1.0 5.0 5 7
+ 1.004 2 3 cbr 1000 ------- 0 1.0 5.0 5 7
- 1.004 2 3 cbr 1000 ------- 0 1.0 5.0 5 7
r 1.008 3 5 cbr 1000 ------- 0 1.0 5.0 1 2
+ 1.06 1 2 cbr 1000 ------- 0 1.0 5.0 6 8
- 1.06 1 2 cbr 1000 ------- 0 1.0 5.0 6 8
r 1.064 2 3 cbr 1000 ------- 0 1.0 5.0 2 3
+ 1.064 3 5 cbr 1000 ------- 0 1.0 5.0 2 3
- 1.064 3 5 cbr 1000 ------- 0 1.0 5.0 2 3
r 1.164 1 2 cbr 1000 ------- 0 1.0 5.0 6 8
+ 1.164 2 3 cbr 1000 ------- 0 1.0 5.0 6 8
- 1.164 2 3 cbr 1000 ------- 0 1.0 5.0 6 8
r 1.168 3 5 cbr 1000 ------- 0 1.0 5.0 2 3
+ 1.22 1 2 cbr 1000 ------- 0 1.0 5.0 7 9
- 1.22 1 2 cbr 1000 ------- 0 1.0 5.0 7 9
r 1.224 2 3 cbr 1000 ------- 0 1.0 5.0 3 4
+ 1.224 3 5 cbr 1000 ------- 0 1.0 5.0 3 4
- 1.224 3 5 cbr 1000 ------- 0 1.0 5.0 3 4
r 1.324 1 2 cbr 1000 ------- 0 1.0 5.0 7 9
+ 1.324 2 3 cbr 1000 ------- 0 1.0 5.0 7 9
- 1.324 2 3 cbr 1000 ------- 0 1.0 5.0 7 9
r 1.328 3 5 cbr 1000 ------- 0 1.0 5.0 3 4
+ 1.38 1 2 cbr 1000 ------- 0 1.0 5.0 8 10
- 1.38 1 2 cbr 1000 ------- 0 1.0 5.0 8 10
r 1.384 2 3 cbr 1000 ------- 0 1.0 5.0 4 5
+ 1.384 3 5 cbr 1000 ------- 0 1.0 5.0 4 5
- 1.384 3 5 cbr 1000 ------- 0 1.0 5.0 4 5
r 1.40368 3 2 ack 40 ------- 0 4.0 0.0 0 6
+ 1.40368 2 0 ack 40 ------- 0 4.0 0.0 0 6
- 1.40368 2 0 ack 40 ------- 0 4.0 0.0 0 6
r 1.484 1 2 cbr 1000 ------- 0 1.0 5.0 8 10
+ 1.484 2 3 cbr 1000 ------- 0 1.0 5.0 8 10
- 1.484 2 3 cbr 1000 ------- 0 1.0 5.0 8 10
r 1.488 3 5 cbr 1000 ------- 0 1.0 5.0 4 5
r 1.50384 2 0 ack 40 ------- 0 4.0 0.0 0 6
+ 1.50384 0 2 tcp 1040 ------- 0 0.0 4.0 1 11
- 1.50384 0 2 tcp 1040 ------- 0 0.0 4.0 1 11
+ 1.50384 0 2 tcp 1040 ------- 0 0.0 4.0 2 12
- 1.508 0 2 tcp 1040 ------- 0 0.0 4.0 2 12
+ 1.54 1 2 cbr 1000 ------- 0 1.0 5.0 9 13
- 1.54 1 2 cbr 1000 ------- 0 1.0 5.0 9 13
r 1.544 2 3 cbr 1000 ------- 0 1.0 5.0 5 7
+ 1.544 3 5 cbr 1000 ------- 0 1.0 5.0 5 7
- 1.544 3 5 cbr 1000 ------- 0 1.0 5.0 5 7
r 1.608 0 2 tcp 1040 ------- 0 0.0 4.0 1 11
+ 1.608 2 3 tcp 1040 ------- 0 0.0 4.0 1 11
- 1.608 2 3 tcp 1040 ------- 0 0.0 4.0 1 11
r 1.61216 0 2 tcp 1040 ------- 0 0.0 4.0 2 12
+ 1.61216 2 3 tcp 1040 ------- 0 0.0 4.0 2 12
r 1.644 1 2 cbr 1000 ------- 0 1.0 5.0 9 13
+ 1.644 2 3 cbr 1000 ------- 0 1.0 5.0 9 13
r 1.648 3 5 cbr 1000 ------- 0 1.0 5.0 5 7
- 1.6496 2 3 tcp 1040 ------- 0 0.0 4.0 2 12
- 1.6912 2 3 cbr 1000 ------- 0 1.0 5.0 9 13
+ 1.7 1 2 cbr 1000 ------- 0 1.0 5.0 10 14
- 1.7 1 2 cbr 1000 ------- 0 1.0 5.0 10 14
r 1.704 2 3 cbr 1000 ------- 0 1.0 5.0 6 8
+ 1.704 3 5 cbr 1000 ------- 0 1.0 5.0 6 8
- 1.704 3 5 cbr 1000 ------- 0 1.0 5.0 6 8
r 1.804 1 2 cbr 1000 ------- 0 1.0 5.0 10 14
+ 1.804 2 3 cbr 1000 ------- 0 1.0 5.0 10 14
- 1.804 2 3 cbr 1000 ------- 0 1.0 5.0 10 14
r 1.808 3 5 cbr 1000 ------- 0 1.0 5.0 6 8
+ 1.86 1 2 cbr 1000 ------- 0 1.0 5.0 11 15
- 1.86 1 2 cbr 1000 ------- 0 1.0 5.0 11 15
r 1.864 2 3 cbr 1000 ------- 0 1.0 5.0 7 9
+ 1.864 3 5 cbr 1000 ------- 0 1.0 5.0 7 9
- 1.864 3 5 cbr 1000 ------- 0 1.0 5.0 7 9
r 1.964 1 2 cbr 1000 ------- 0 1.0 5.0 11 15
+ 1.964 2 3 cbr 1000 ------- 0 1.0 5.0 11 15
- 1.964 2 3 cbr 1000 ------- 0 1.0 5.0 11 15
r 1.968 3 5 cbr 1000 ------- 0 1.0 5.0 7 9
+ 2.02 1 2 cbr 1000 ------- 0 1.0 5.0 12 16
- 2.02 1 2 cbr 1000 ------- 0 1.0 5.0 12 16
r 2.024 2 3 cbr 1000 ------- 0 1.0 5.0 8 10
+ 2.024 3 5 cbr 1000 ------- 0 1.0 5.0 8 10
- 2.024 3 5 cbr 1000 ------- 0 1.0 5.0 8 10
r 2.124 1 2 cbr 1000 ------- 0 1.0 5.0 12 16
+ 2.124 2 3 cbr 1000 ------- 0 1.0 5.0 12 16
- 2.124 2 3 cbr 1000 ------- 0 1.0 5.0 12 16
r 2.128 3 5 cbr 1000 ------- 0 1.0 5.0 8 10
r 2.1496 2 3 tcp 1040 ------- 0 0.0 4.0 1 11
+ 2.1496 3 4 tcp 1040 ------- 0 0.0 4.0 1 11
- 2.1496 3 4 tcp 1040 ------- 0 0.0 4.0 1 11
+ 2.18 1 2 cbr 1000 ------- 0 1.0 5.0 13 17
- 2.18 1 2 cbr 1000 ------- 0 1.0 5.0 13 17
r 2.1912 2 3 tcp 1040 ------- 0 0.0 4.0 2 12
+ 2.1912 3 4 tcp 1040 ------- 0 0.0 4.0 2 12
- 2.1912 3 4 tcp 1040 ------- 0 0.0 4.0 2 12
r 2.2312 2 3 cbr 1000 ------- 0 1.0 5.0 9 13
+ 2.2312 3 5 cbr 1000 ------- 0 1.0 5.0 9 13
- 2.2312 3 5 cbr 1000 ------- 0 1.0 5.0 9 13
r 2.25376 3 4 tcp 1040 ------- 0 0.0 4.0 1 11
+ 2.25376 4 3 ack 40 ------- 0 4.0 0.0 1 18
- 2.25376 4 3 ack 40 ------- 0 4.0 0.0 1 18
r 2.284 1 2 cbr 1000 ------- 0 1.0 5.0 13 17
+ 2.284 2 3 cbr 1000 ------- 0 1.0 5.0 13 17
- 2.284 2 3 cbr 1000 ------- 0 1.0 5.0 13 17
r 2.29536 3 4 tcp 1040 ------- 0 0.0 4.0 2 12
+ 2.29536 4 3 ack 40 ------- 0 4.0 0.0 2 19
- 2.29536 4 3 ack 40 ------- 0 4.0 0.0 2 19
r 2.3352 3 5 cbr 1000 ------- 0 1.0 5.0 9 13
+ 2.34 1 2 cbr 1000 ------- 0 1.0 5.0 14 20
- 2.34 1 2 cbr 1000 ------- 0 1.0 5.0 14 20
r 2.344 2 3 cbr 1000 ------- 0 1.0 5.0 10 14
+ 2.344 3 5 cbr 1000 ------- 0 1.0 5.0 10 14
- 2.344 3 5 cbr 1000 ------- 0 1.0 5.0 10 14
r 2.35392 4 3 ack 40 ------- 0 4.0 0.0 1 18
+ 2.35392 3 2 ack 40 ------- 0 4.0 0.0 1 18
- 2.35392 3 2 ack 40 ------- 0 4.0 0.0 1 18
r 2.39552 4 3 ack 40 ------- 0 4.0 0.0 2 19
+ 2.39552 3 2 ack 40 ------- 0 4.0 0.0 2 19
- 2.39552 3 2 ack 40 ------- 0 4.0 0.0 2 19
r 2.444 1 2 cbr 1000 ------- 0 1.0 5.0 14 20
+ 2.444 2 3 cbr 1000 ------- 0 1.0 5.0 14 20
- 2.444 2 3 cbr 1000 ------- 0 1.0 5.0 14 20
r 2.448 3 5 cbr 1000 ------- 0 1.0 5.0 10 14
+ 2.5 1 2 cbr 1000 ------- 0 1.0 5.0 15 21
- 2.5 1 2 cbr 1000 ------- 0 1.0 5.0 15 21
r 2.504 2 3 cbr 1000 ------- 0 1.0 5.0 11 15
+ 2.504 3 5 cbr 1000 ------- 0 1.0 5.0 11 15
- 2.504 3 5 cbr 1000 ------- 0 1.0 5.0 11 15
r 2.604 1 2 cbr 1000 ------- 0 1.0 5.0 15 21
+ 2.604 2 3 cbr 1000 ------- 0 1.0 5.0 15 21
- 2.604 2 3 cbr 1000 ------- 0 1.0 5.0 15 21
r 2.608 3 5 cbr 1000 ------- 0 1.0 5.0 11 15
+ 2.66 1 2 cbr 1000 ------- 0 1.0 5.0 16 22
- 2.66 1 2 cbr 1000 ------- 0 1.0 5.0 16 22
r 2.664 2 3 cbr 1000 ------- 0 1.0 5.0 12 16
+ 2.664 3 5 cbr 1000 ------- 0 1.0 5.0 12 16
- 2.664 3 5 cbr 1000 ------- 0 1.0 5.0 12 16
r 2.764 1 2 cbr 1000 ------- 0 1.0 5.0 16 22
+ 2.764 2 3 cbr 1000 ------- 0 1.0 5.0 16 22
- 2.764 2 3 cbr 1000 ------- 0 1.0 5.0 16 22
r 2.768 3 5 cbr 1000 ------- 0 1.0 5.0 12 16
+ 2.82 1 2 cbr 1000 ------- 0 1.0 5.0 17 23
- 2.82 1 2 cbr 1000 ------- 0 1.0 5.0 17 23
r 2.824 2 3 cbr 1000 ------- 0 1.0 5.0 13 17
+ 2.824 3 5 cbr 1000 ------- 0 1.0 5.0 13 17
- 2.824 3 5 cbr 1000 ------- 0 1.0 5.0 13 17
r 2.85552 3 2 ack 40 ------- 0 4.0 0.0 1 18
+ 2.85552 2 0 ack 40 ------- 0 4.0 0.0 1 18
- 2.85552 2 0 ack 40 ------- 0 4.0 0.0 1 18
r 2.89712 3 2 ack 40 ------- 0 4.0 0.0 2 19
+ 2.89712 2 0 ack 40 ------- 0 4.0 0.0 2 19
- 2.89712 2 0 ack 40 ------- 0 4.0 0.0 2 19
r 2.924 1 2 cbr 1000 ------- 0 1.0 5.0 17 23
+ 2.924 2 3 cbr 1000 ------- 0 1.0 5.0 17 23
- 2.924 2 3 cbr 1000 ------- 0 1.0 5.0 17 23
r 2.928 3 5 cbr 1000 ------- 0 1.0 5.0 13 17
r 2.95568 2 0 ack 40 ------- 0 4.0 0.0 1 18
+ 2.95568 0 2 tcp 1040 ------- 0 0.0 4.0 3 24
- 2.95568 0 2 tcp 1040 ------- 0 0.0 4.0 3 24
+ 2.95568 0 2 tcp 1040 ------- 0 0.0 4.0 4 25
- 2.95984 0 2 tcp 1040 ------- 0 0.0 4.0 4 25
+ 2.98 1 2 cbr 1000 ------- 0 1.0 5.0 18 26
- 2.98 1 2 cbr 1000 ------- 0 1.0 5.0 18 26
r 2.984 2 3 cbr 1000 ------- 0 1.0 5.0 14 20
+ 2.984 3 5 cbr 1000 ------- 0 1.0 5.0 14 20
- 2.984 3 5 cbr 1000 ------- 0 1.0 5.0 14 20
r 2.99728 2 0 ack 40 ------- 0 4.0 0.0 2 19
+ 2.99728 0 2 tcp 1040 ------- 0 0.0 4.0 5 27
- 2.99728 0 2 tcp 1040 ------- 0 0.0 4.0 5 27
+ 2.99728 0 2 tcp 1040 ------- 0 0.0 4.0 6 28
- 3.00144 0 2 tcp 1040 ------- 0 0.0 4.0 6 28
r 3.05984 0 2 tcp 1040 ------- 0 0.0 4.0 3 24
+ 3.05984 2 3 tcp 1040 ------- 0 0.0 4.0 3 24
- 3.05984 2 3 tcp 1040 ------- 0 0.0 4.0 3 24
r 3.064 0 2 tcp 1040 ------- 0 0.0 4.0 4 25
+ 3.064 2 3 tcp 1040 ------- 0 0.0 4.0 4 25
r 3.084 1 2 cbr 1000 ------- 0 1.0 5.0 18 26
+ 3.084 2 3 cbr 1000 ------- 0 1.0 5.0 18 26
r 3.088 3 5 cbr 1000 ------- 0 1.0 5.0 14 20
- 3.10144 2 3 tcp 1040 ------- 0 0.0 4.0 4 25
r 3.10144 0 2 tcp 1040 ------- 0 0.0 4.0 5 27
+ 3.10144 2 3 tcp 1040 ------- 0 0.0 4.0 5 27
r 3.1056 0 2 tcp 1040 ------- 0 0.0 4.0 6 28
+ 3.1056 2 3 tcp 1040 ------- 0 0.0 4.0 6 28
+ 3.14 1 2 cbr 1000 ------- 0 1.0 5.0 19 29
- 3.14 1 2 cbr 1000 ------- 0 1.0 5.0 19 29
- 3.14304 2 3 cbr 1000 ------- 0 1.0 5.0 18 26
r 3.144 2 3 cbr 1000 ------- 0 1.0 5.0 15 21
+ 3.144 3 5 cbr 1000 ------- 0 1.0 5.0 15 21
- 3.144 3 5 cbr 1000 ------- 0 1.0 5.0 15 21
- 3.18304 2 3 tcp 1040 ------- 0 0.0 4.0 5 27
- 3.22464 2 3 tcp 1040 ------- 0 0.0 4.0 6 28
r 3.244 1 2 cbr 1000 ------- 0 1.0 5.0 19 29
+ 3.244 2 3 cbr 1000 ------- 0 1.0 5.0 19 29
r 3.248 3 5 cbr 1000 ------- 0 1.0 5.0 15 21
- 3.26624 2 3 cbr 1000 ------- 0 1.0 5.0 19 29
+ 3.3 1 2 cbr 1000 ------- 0 1.0 5.0 20 30
- 3.3 1 2 cbr 1000 ------- 0 1.0 5.0 20 30
r 3.304 2 3 cbr 1000 ------- 0 1.0 5.0 16 22
+ 3.304 3 5 cbr 1000 ------- 0 1.0 5.0 16 22
- 3.304 3 5 cbr 1000 ------- 0 1.0 5.0 16 22
r 3.404 1 2 cbr 1000 ------- 0 1.0 5.0 20 30
+ 3.404 2 3 cbr 1000 ------- 0 1.0 5.0 20 30
- 3.404 2 3 cbr 1000 ------- 0 1.0 5.0 20 30
r 3.408 3 5 cbr 1000 ------- 0 1.0 5.0 16 22
+ 3.46 1 2 cbr 1000 ------- 0 1.0 5.0 21 31
- 3.46 1 2 cbr 1000 ------- 0 1.0 5.0 21 31
r 3.464 2 3 cbr 1000 ------- 0 1.0 5.0 17 23
+ 3.464 3 5 cbr 1000 ------- 0 1.0 5.0 17 23
- 3.464 3 5 cbr 1000 ------- 0 1.0 5.0 17 23
r 3.564 1 2 cbr 1000 ------- 0 1.0 5.0 21 31
+ 3.564 2 3 cbr 1000 ------- 0 1.0 5.0 21 31
- 3.564 2 3 cbr 1000 ------- 0 1.0 5.0 21 31
r 3.568 3 5 cbr 1000 ------- 0 1.0 5.0 17 23
r 3.60144 2 3 tcp 1040 ------- 0 0.0 4.0 3 24
+ 3.60144 3 4 tcp 1040 ------- 0 0.0 4.0 3 24
- 3.60144 3 4 tcp 1040 ------- 0 0.0 4.0 3 24
+ 3.62 1 2 cbr 1000 ------- 0 1.0 5.0 22 32
- 3.62 1 2 cbr 1000 ------- 0 1.0 5.0 22 32
r 3.64304 2 3 tcp 1040 ------- 0 0.0 4.0 4 25
+ 3.64304 3 4 tcp 1040 ------- 0 0.0 4.0 4 25
- 3.64304 3 4 tcp 1040 ------- 0 0.0 4.0 4 25
r 3.68304 2 3 cbr 1000 ------- 0 1.0 5.0 18 26
+ 3.68304 3 5 cbr 1000 ------- 0 1.0 5.0 18 26
- 3.68304 3 5 cbr 1000 ------- 0 1.0 5.0 18 26
r 3.7056 3 4 tcp 1040 ------- 0 0.0 4.0 3 24
+ 3.7056 4 3 ack 40 ------- 0 4.0 0.0 3 33
- 3.7056 4 3 ack 40 ------- 0 4.0 0.0 3 33
r 3.724 1 2 cbr 1000 ------- 0 1.0 5.0 22 32
+ 3.724 2 3 cbr 1000 ------- 0 1.0 5.0 22 32
- 3.724 2 3 cbr 1000 ------- 0 1.0 5.0 22 32
r 3.72464 2 3 tcp 1040 ------- 0 0.0 4.0 5 27
+ 3.72464 3 4 tcp 1040 ------- 0 0.0 4.0 5 27
- 3.72464 3 4 tcp 1040 ------- 0 0.0 4.0 5 27
r 3.7472 3 4 tcp 1040 ------- 0 0.0 4.0 4 25
+ 3.7472 4 3 ack 40 ------- 0 4.0 0.0 4 34
- 3.7472 4 3 ack 40 ------- 0 4.0 0.0 4 34
r 3.76624 2 3 tcp 1040 ------- 0 0.0 4.0 6 28
+ 3.76624 3 4 tcp 1040 ------- 0 0.0 4.0 6 28
- 3.76624 3 4 tcp 1040 ------- 0 0.0 4.0 6 28
+ 3.78 1 2 cbr 1000 ------- 0 1.0 5.0 23 35
- 3.78 1 2 cbr 1000 ------- 0 1.0 5.0 23 35
r 3.78704 3 5 cbr 1000 ------- 0 1.0 5.0 18 26
r 3.80576 4 3 ack 40 ------- 0 4.0 0.0 3 33
+ 3.80576 3 2 ack 40 ------- 0 4.0 0.0 3 33
- 3.80576 3 2 ack 40 ------- 0 4.0 0.0 3 33
r 3.80624 2 3 cbr 1000 ------- 0 1.0 5.0 19 29
+ 3.80624 3 5 cbr 1000 ------- 0 1.0 5.0 19 29
- 3.80624 3 5 cbr 1000 ------- 0 1.0 5.0 19 29
r 3.8288 3 4 tcp 1040 ------- 0 0.0 4.0 5 27
+ 3.8288 4 3 ack 40 ------- 0 4.0 0.0 5 36
- 3.8288 4 3 ack 40 ------- 0 4.0 0.0 5 36
r 3.84736 4 3 ack 40 ------- 0 4.0 0.0 4 34
+ 3.84736 3 2 ack 40 ------- 0 4.0 0.0 4 34
- 3.84736 3 2 ack 40 ------- 0 4.0 0.0 4 34
r 3.8704 3 4 tcp 1040 ------- 0 0.0 4.0 6 28
+ 3.8704 4 3 ack 40 ------- 0 4.0 0.0 6 37
- 3.8704 4 3 ack 40 ------- 0 4.0 0.0 6 37
r 3.884 1 2 cbr 1000 ------- 0 1.0 5.0 23 35
+ 3.884 2 3 cbr 1000 ------- 0 1.0 5.0 23 35
- 3.884 2 3 cbr 1000 ------- 0 1.0 5.0 23 35
r 3.91024 3 5 cbr 1000 ------- 0 1.0 5.0 19 29
r 3.92896 4 3 ack 40 ------- 0 4.0 0.0 5 36
+ 3.92896 3 2 ack 40 ------- 0 4.0 0.0 5 36
- 3.92896 3 2 ack 40 ------- 0 4.0 0.0 5 36
+ 3.94 1 2 cbr 1000 ------- 0 1.0 5.0 24 38
- 3.94 1 2 cbr 1000 ------- 0 1.0 5.0 24 38
r 3.944 2 3 cbr 1000 ------- 0 1.0 5.0 20 30
+ 3.944 3 5 cbr 1000 ------- 0 1.0 5.0 20 30
- 3.944 3 5 cbr 1000 ------- 0 1.0 5.0 20 30
r 3.97056 4 3 ack 40 ------- 0 4.0 0.0 6 37
+ 3.97056 3 2 ack 40 ------- 0 4.0 0.0 6 37
- 3.97056 3 2 ack 40 ------- 0 4.0 0.0 6 37
r 4.044 1 2 cbr 1000 ------- 0 1.0 5.0 24 38
+ 4.044 2 3 cbr 1000 ------- 0 1.0 5.0 24 38
- 4.044 2 3 cbr 1000 ------- 0 1.0 5.0 24 38
r 4.048 3 5 cbr 1000 ------- 0 1.0 5.0 20 30
+ 4.1 1 2 cbr 1000 ------- 0 1.0 5.0 25 39
- 4.1 1 2 cbr 1000 ------- 0 1.0 5.0 25 39
r 4.104 2 3 cbr 1000 ------- 0 1.0 5.0 21 31
+ 4.104 3 5 cbr 1000 ------- 0 1.0 5.0 21 31
- 4.104 3 5 cbr 1000 ------- 0 1.0 5.0 21 31
r 4.204 1 2 cbr 1000 ------- 0 1.0 5.0 25 39
+ 4.204 2 3 cbr 1000 ------- 0 1.0 5.0 25 39
- 4.204 2 3 cbr 1000 ------- 0 1.0 5.0 25 39
r 4.208 3 5 cbr 1000 ------- 0 1.0 5.0 21 31
+ 4.26 1 2 cbr 1000 ------- 0 1.0 5.0 26 40
- 4.26 1 2 cbr 1000 ------- 0 1.0 5.0 26 40
r 4.264 2 3 cbr 1000 ------- 0 1.0 5.0 22 32
+ 4.264 3 5 cbr 1000 ------- 0 1.0 5.0 22 32
- 4.264 3 5 cbr 1000 ------- 0 1.0 5.0 22 32
r 4.30736 3 2 ack 40 ------- 0 4.0 0.0 3 33
+ 4.30736 2 0 ack 40 ------- 0 4.0 0.0 3 33
- 4.30736 2 0 ack 40 ------- 0 4.0 0.0 3 33
r 4.34896 3 2 ack 40 ------- 0 4.0 0.0 4 34
+ 4.34896 2 0 ack 40 ------- 0 4.0 0.0 4 34
- 4.34896 2 0 ack 40 ------- 0 4.0 0.0 4 34
r 4.364 1 2 cbr 1000 ------- 0 1.0 5.0 26 40
+ 4.364 2 3 cbr 1000 ------- 0 1.0 5.0 26 40
- 4.364 2 3 cbr 1000 ------- 0 1.0 5.0 26 40
r 4.368 3 5 cbr 1000 ------- 0 1.0 5.0 22 32
r 4.40752 2 0 ack 40 ------- 0 4.0 0.0 3 33
+ 4.40752 0 2 tcp 1040 ------- 0 0.0 4.0 7 41
- 4.40752 0 2 tcp 1040 ------- 0 0.0 4.0 7 41
+ 4.40752 0 2 tcp 1040 ------- 0 0.0 4.0 8 42
- 4.41168 0 2 tcp 1040 ------- 0 0.0 4.0 8 42
+ 4.42 1 2 cbr 1000 ------- 0 1.0 5.0 27 43
- 4.42 1 2 cbr 1000 ------- 0 1.0 5.0 27 43
r 4.424 2 3 cbr 1000 ------- 0 1.0 5.0 23 35
+ 4.424 3 5 cbr 1000 ------- 0 1.0 5.0 23 35
- 4.424 3 5 cbr 1000 ------- 0 1.0 5.0 23 35
r 4.43056 3 2 ack 40 ------- 0 4.0 0.0 5 36
+ 4.43056 2 0 ack 40 ------- 0 4.0 0.0 5 36
- 4.43056 2 0 ack 40 ------- 0 4.0 0.0 5 36
r 4.44912 2 0 ack 40 ------- 0 4.0 0.0 4 34
+ 4.44912 0 2 tcp 1040 ------- 0 0.0 4.0 9 44
- 4.44912 0 2 tcp 1040 ------- 0 0.0 4.0 9 44
+ 4.44912 0 2 tcp 1040 ------- 0 0.0 4.0 10 45
- 4.45328 0 2 tcp 1040 ------- 0 0.0 4.0 10 45
r 4.47216 3 2 ack 40 ------- 0 4.0 0.0 6 37
+ 4.47216 2 0 ack 40 ------- 0 4.0 0.0 6 37
- 4.47216 2 0 ack 40 ------- 0 4.0 0.0 6 37
r 4.51168 0 2 tcp 1040 ------- 0 0.0 4.0 7 41
+ 4.51168 2 3 tcp 1040 ------- 0 0.0 4.0 7 41
- 4.51168 2 3 tcp 1040 ------- 0 0.0 4.0 7 41
r 4.51584 0 2 tcp 1040 ------- 0 0.0 4.0 8 42
+ 4.51584 2 3 tcp 1040 ------- 0 0.0 4.0 8 42
r 4.524 1 2 cbr 1000 ------- 0 1.0 5.0 27 43
+ 4.524 2 3 cbr 1000 ------- 0 1.0 5.0 27 43
r 4.528 3 5 cbr 1000 ------- 0 1.0 5.0 23 35
r 4.53072 2 0 ack 40 ------- 0 4.0 0.0 5 36
+ 4.53072 0 2 tcp 1040 ------- 0 0.0 4.0 11 46
- 4.53072 0 2 tcp 1040 ------- 0 0.0 4.0 11 46
+ 4.53072 0 2 tcp 1040 ------- 0 0.0 4.0 12 47
- 4.53488 0 2 tcp 1040 ------- 0 0.0 4.0 12 47
r 4.55328 0 2 tcp 1040 ------- 0 0.0 4.0 9 44
+ 4.55328 2 3 tcp 1040 ------- 0 0.0 4.0 9 44
- 4.55328 2 3 tcp 1040 ------- 0 0.0 4.0 8 42
r 4.55744 0 2 tcp 1040 ------- 0 0.0 4.0 10 45
+ 4.55744 2 3 tcp 1040 ------- 0 0.0 4.0 10 45
r 4.57232 2 0 ack 40 ------- 0 4.0 0.0 6 37
+ 4.57232 0 2 tcp 1040 ------- 0 0.0 4.0 13 48
- 4.57232 0 2 tcp 1040 ------- 0 0.0 4.0 13 48
+ 4.57232 0 2 tcp 1040 ------- 0 0.0 4.0 14 49
- 4.57648 0 2 tcp 1040 ------- 0 0.0 4.0 14 49
+ 4.58 1 2 cbr 1000 ------- 0 1.0 5.0 28 50
- 4.58 1 2 cbr 1000 ------- 0 1.0 5.0 28 50
r 4.584 2 3 cbr 1000 ------- 0 1.0 5.0 24 38
+ 4.584 3 5 cbr 1000 ------- 0 1.0 5.0 24 38
- 4.584 3 5 cbr 1000 ------- 0 1.0 5.0 24 38
- 4.59488 2 3 cbr 1000 ------- 0 1.0 5.0 27 43
r 4.63488 0 2 tcp 1040 ------- 0 0.0 4.0 11 46
+ 4.63488 2 3 tcp 1040 ------- 0 0.0 4.0 11 46
- 4.63488 2 3 tcp 1040 ------- 0 0.0 4.0 9 44
r 4.63904 0 2 tcp 1040 ------- 0 0.0 4.0 12 47
+ 4.63904 2 3 tcp 1040 ------- 0 0.0 4.0 12 47
r 4.67648 0 2 tcp 1040 ------- 0 0.0 4.0 13 48
+ 4.67648 2 3 tcp 1040 ------- 0 0.0 4.0 13 48
- 4.67648 2 3 tcp 1040 ------- 0 0.0 4.0 10 45
r 4.68064 0 2 tcp 1040 ------- 0 0.0 4.0 14 49
+ 4.68064 2 3 tcp 1040 ------- 0 0.0 4.0 14 49
r 4.684 1 2 cbr 1000 ------- 0 1.0 5.0 28 50
+ 4.684 2 3 cbr 1000 ------- 0 1.0 5.0 28 50
r 4.688 3 5 cbr 1000 ------- 0 1.0 5.0 24 38
- 4.71808 2 3 tcp 1040 ------- 0 0.0 4.0 11 46
+ 4.74 1 2 cbr 1000 ------- 0 1.0 5.0 29 51
- 4.74 1 2 cbr 1000 ------- 0 1.0 5.0 29 51
r 4.744 2 3 cbr 1000 ------- 0 1.0 5.0 25 39
+ 4.744 3 5 cbr 1000 ------- 0 1.0 5.0 25 39
- 4.744 3 5 cbr 1000 ------- 0 1.0 5.0 25 39
- 4.75968 2 3 tcp 1040 ------- 0 0.0 4.0 12 47
- 4.80128 2 3 tcp 1040 ------- 0 0.0 4.0 13 48
- 4.84288 2 3 tcp 1040 ------- 0 0.0 4.0 14 49
r 4.844 1 2 cbr 1000 ------- 0 1.0 5.0 29 51
+ 4.844 2 3 cbr 1000 ------- 0 1.0 5.0 29 51
r 4.848 3 5 cbr 1000 ------- 0 1.0 5.0 25 39
- 4.88448 2 3 cbr 1000 ------- 0 1.0 5.0 28 50
+ 4.9 1 2 cbr 1000 ------- 0 1.0 5.0 30 52
- 4.9 1 2 cbr 1000 ------- 0 1.0 5.0 30 52
r 4.904 2 3 cbr 1000 ------- 0 1.0 5.0 26 40
+ 4.904 3 5 cbr 1000 ------- 0 1.0 5.0 26 40
- 4.904 3 5 cbr 1000 ------- 0 1.0 5.0 26 40
- 4.92448 2 3 cbr 1000 ------- 0 1.0 5.0 29 51
r 5.004 1 2 cbr 1000 ------- 0 1.0 5.0 30 52
+ 5.004 2 3 cbr 1000 ------- 0 1.0 5.0 30 52
- 5.004 2 3 cbr 1000 ------- 0 1.0 5.0 30 52
r 5.008 3 5 cbr 1000 ------- 0 1.0 5.0 26 40
r 5.05328 2 3 tcp 1040 ------- 0 0.0 4.0 7 41
+ 5.05328 3 4 tcp 1040 ------- 0 0.0 4.0 7 41
- 5.05328 3 4 tcp 1040 ------- 0 0.0 4.0 7 41
+ 5.06 1 2 cbr 1000 ------- 0 1.0 5.0 31 53
- 5.06 1 2 cbr 1000 ------- 0 1.0 5.0 31 53
r 5.09488 2 3 tcp 1040 ------- 0 0.0 4.0 8 42
+ 5.09488 3 4 tcp 1040 ------- 0 0.0 4.0 8 42
- 5.09488 3 4 tcp 1040 ------- 0 0.0 4.0 8 42
r 5.13488 2 3 cbr 1000 ------- 0 1.0 5.0 27 43
+ 5.13488 3 5 cbr 1000 ------- 0 1.0 5.0 27 43
- 5.13488 3 5 cbr 1000 ------- 0 1.0 5.0 27 43
r 5.15744 3 4 tcp 1040 ------- 0 0.0 4.0 7 41
+ 5.15744 4 3 ack 40 ------- 0 4.0 0.0 7 54
- 5.15744 4 3 ack 40 ------- 0 4.0 0.0 7 54
r 5.164 1 2 cbr 1000 ------- 0 1.0 5.0 31 53
+ 5.164 2 3 cbr 1000 ------- 0 1.0 5.0 31 53
- 5.164 2 3 cbr 1000 ------- 0 1.0 5.0 31 53
r 5.17648 2 3 tcp 1040 ------- 0 0.0 4.0 9 44
+ 5.17648 3 4 tcp 1040 ------- 0 0.0 4.0 9 44
- 5.17648 3 4 tcp 1040 ------- 0 0.0 4.0 9 44
r 5.19904 3 4 tcp 1040 ------- 0 0.0 4.0 8 42
+ 5.19904 4 3 ack 40 ------- 0 4.0 0.0 8 55
- 5.19904 4 3 ack 40 ------- 0 4.0 0.0 8 55
r 5.21808 2 3 tcp 1040 ------- 0 0.0 4.0 10 45
+ 5.21808 3 4 tcp 1040 ------- 0 0.0 4.0 10 45
- 5.21808 3 4 tcp 1040 ------- 0 0.0 4.0 10 45
+ 5.22 1 2 cbr 1000 ------- 0 1.0 5.0 32 56
- 5.22 1 2 cbr 1000 ------- 0 1.0 5.0 32 56
r 5.23888 3 5 cbr 1000 ------- 0 1.0 5.0 27 43
r 5.2576 4 3 ack 40 ------- 0 4.0 0.0 7 54
+ 5.2576 3 2 ack 40 ------- 0 4.0 0.0 7 54
- 5.2576 3 2 ack 40 ------- 0 4.0 0.0 7 54
r 5.25968 2 3 tcp 1040 ------- 0 0.0 4.0 11 46
+ 5.25968 3 4 tcp 1040 ------- 0 0.0 4.0 11 46
- 5.25968 3 4 tcp 1040 ------- 0 0.0 4.0 11 46
r 5.28064 3 4 tcp 1040 ------- 0 0.0 4.0 9 44
+ 5.28064 4 3 ack 40 ------- 0 4.0 0.0 9 57
- 5.28064 4 3 ack 40 ------- 0 4.0 0.0 9 57
r 5.2992 4 3 ack 40 ------- 0 4.0 0.0 8 55
+ 5.2992 3 2 ack 40 ------- 0 4.0 0.0 8 55
- 5.2992 3 2 ack 40 ------- 0 4.0 0.0 8 55
r 5.30128 2 3 tcp 1040 ------- 0 0.0 4.0 12 47
+ 5.30128 3 4 tcp 1040 ------- 0 0.0 4.0 12 47
- 5.30128 3 4 tcp 1040 ------- 0 0.0 4.0 12 47
r 5.32224 3 4 tcp 1040 ------- 0 0.0 4.0 10 45
+ 5.32224 4 3 ack 40 ------- 0 4.0 0.0 10 58
- 5.32224 4 3 ack 40 ------- 0 4.0 0.0 10 58
r 5.324 1 2 cbr 1000 ------- 0 1.0 5.0 32 56
+ 5.324 2 3 cbr 1000 ------- 0 1.0 5.0 32 56
- 5.324 2 3 cbr 1000 ------- 0 1.0 5.0 32 56
r 5.34288 2 3 tcp 1040 ------- 0 0.0 4.0 13 48
+ 5.34288 3 4 tcp 1040 ------- 0 0.0 4.0 13 48
- 5.34288 3 4 tcp 1040 ------- 0 0.0 4.0 13 48
r 5.36384 3 4 tcp 1040 ------- 0 0.0 4.0 11 46
+ 5.36384 4 3 ack 40 ------- 0 4.0 0.0 11 59
- 5.36384 4 3 ack 40 ------- 0 4.0 0.0 11 59
+ 5.38 1 2 cbr 1000 ------- 0 1.0 5.0 33 60
- 5.38 1 2 cbr 1000 ------- 0 1.0 5.0 33 60
r 5.3808 4 3 ack 40 ------- 0 4.0 0.0 9 57
+ 5.3808 3 2 ack 40 ------- 0 4.0 0.0 9 57
- 5.3808 3 2 ack 40 ------- 0 4.0 0.0 9 57
r 5.38448 2 3 tcp 1040 ------- 0 0.0 4.0 14 49
+ 5.38448 3 4 tcp 1040 ------- 0 0.0 4.0 14 49
- 5.38448 3 4 tcp 1040 ------- 0 0.0 4.0 14 49
r 5.40544 3 4 tcp 1040 ------- 0 0.0 4.0 12 47
+ 5.40544 4 3 ack 40 ------- 0 4.0 0.0 12 61
- 5.40544 4 3 ack 40 ------- 0 4.0 0.0 12 61
r 5.4224 4 3 ack 40 ------- 0 4.0 0.0 10 58
+ 5.4224 3 2 ack 40 ------- 0 4.0 0.0 10 58
- 5.4224 3 2 ack 40 ------- 0 4.0 0.0 10 58
r 5.42448 2 3 cbr 1000 ------- 0 1.0 5.0 28 50
+ 5.42448 3 5 cbr 1000 ------- 0 1.0 5.0 28 50
- 5.42448 3 5 cbr 1000 ------- 0 1.0 5.0 28 50
r 5.44704 3 4 tcp 1040 ------- 0 0.0 4.0 13 48
+ 5.44704 4 3 ack 40 ------- 0 4.0 0.0 13 62
- 5.44704 4 3 ack 40 ------- 0 4.0 0.0 13 62
r 5.464 4 3 ack 40 ------- 0 4.0 0.0 11 59
+ 5.464 3 2 ack 40 ------- 0 4.0 0.0 11 59
- 5.464 3 2 ack 40 ------- 0 4.0 0.0 11 59
r 5.46448 2 3 cbr 1000 ------- 0 1.0 5.0 29 51
+ 5.46448 3 5 cbr 1000 ------- 0 1.0 5.0 29 51
- 5.46448 3 5 cbr 1000 ------- 0 1.0 5.0 29 51
r 5.484 1 2 cbr 1000 ------- 0 1.0 5.0 33 60
+ 5.484 2 3 cbr 1000 ------- 0 1.0 5.0 33 60
- 5.484 2 3 cbr 1000 ------- 0 1.0 5.0 33 60
r 5.48864 3 4 tcp 1040 ------- 0 0.0 4.0 14 49
+ 5.48864 4 3 ack 40 ------- 0 4.0 0.0 14 63
- 5.48864 4 3 ack 40 ------- 0 4.0 0.0 14 63
r 5.5056 4 3 ack 40 ------- 0 4.0 0.0 12 61
+ 5.5056 3 2 ack 40 ------- 0 4.0 0.0 12 61
- 5.5056 3 2 ack 40 ------- 0 4.0 0.0 12 61
r 5.52848 3 5 cbr 1000 ------- 0 1.0 5.0 28 50
+ 5.54 1 2 cbr 1000 ------- 0 1.0 5.0 34 64
- 5.54 1 2 cbr 1000 ------- 0 1.0 5.0 34 64
r 5.544 2 3 cbr 1000 ------- 0 1.0 5.0 30 52
+ 5.544 3 5 cbr 1000 ------- 0 1.0 5.0 30 52
- 5.544 3 5 cbr 1000 ------- 0 1.0 5.0 30 52
r 5.5472 4 3 ack 40 ------- 0 4.0 0.0 13 62
+ 5.5472 3 2 ack 40 ------- 0 4.0 0.0 13 62
- 5.5472 3 2 ack 40 ------- 0 4.0 0.0 13 62
r 5.56848 3 5 cbr 1000 ------- 0 1.0 5.0 29 51
r 5.5888 4 3 ack 40 ------- 0 4.0 0.0 14 63
+ 5.5888 3 2 ack 40 ------- 0 4.0 0.0 14 63
- 5.5888 3 2 ack 40 ------- 0 4.0 0.0 14 63
r 5.644 1 2 cbr 1000 ------- 0 1.0 5.0 34 64
+ 5.644 2 3 cbr 1000 ------- 0 1.0 5.0 34 64
- 5.644 2 3 cbr 1000 ------- 0 1.0 5.0 34 64
r 5.648 3 5 cbr 1000 ------- 0 1.0 5.0 30 52
+ 5.7 1 2 cbr 1000 ------- 0 1.0 5.0 35 65
- 5.7 1 2 cbr 1000 ------- 0 1.0 5.0 35 65
r 5.704 2 3 cbr 1000 ------- 0 1.0 5.0 31 53
+ 5.704 3 5 cbr 1000 ------- 0 1.0 5.0 31 53
- 5.704 3 5 cbr 1000 ------- 0 1.0 5.0 31 53
r 5.7592 3 2 ack 40 ------- 0 4.0 0.0 7 54
+ 5.7592 2 0 ack 40 ------- 0 4.0 0.0 7 54
- 5.7592 2 0 ack 40 ------- 0 4.0 0.0 7 54
r 5.8008 3 2 ack 40 ------- 0 4.0 0.0 8 55
+ 5.8008 2 0 ack 40 ------- 0 4.0 0.0 8 55
- 5.8008 2 0 ack 40 ------- 0 4.0 0.0 8 55
r 5.804 1 2 cbr 1000 ------- 0 1.0 5.0 35 65
+ 5.804 2 3 cbr 1000 ------- 0 1.0 5.0 35 65
- 5.804 2 3 cbr 1000 ------- 0 1.0 5.0 35 65
r 5.808 3 5 cbr 1000 ------- 0 1.0 5.0 31 53
r 5.85936 2 0 ack 40 ------- 0 4.0 0.0 7 54
+ 5.85936 0 2 tcp 1040 ------- 0 0.0 4.0 15 66
- 5.85936 0 2 tcp 1040 ------- 0 0.0 4.0 15 66
+ 5.85936 0 2 tcp 1040 ------- 0 0.0 4.0 16 67
+ 5.86 1 2 cbr 1000 ------- 0 1.0 5.0 36 68
- 5.86 1 2 cbr 1000 ------- 0 1.0 5.0 36 68
- 5.86352 0 2 tcp 1040 ------- 0 0.0 4.0 16 67
r 5.864 2 3 cbr 1000 ------- 0 1.0 5.0 32 56
+ 5.864 3 5 cbr 1000 ------- 0 1.0 5.0 32 56
- 5.864 3 5 cbr 1000 ------- 0 1.0 5.0 32 56
r 5.8824 3 2 ack 40 ------- 0 4.0 0.0 9 57
+ 5.8824 2 0 ack 40 ------- 0 4.0 0.0 9 57
- 5.8824 2 0 ack 40 ------- 0 4.0 0.0 9 57
r 5.90096 2 0 ack 40 ------- 0 4.0 0.0 8 55
+ 5.90096 0 2 tcp 1040 ------- 0 0.0 4.0 17 69
- 5.90096 0 2 tcp 1040 ------- 0 0.0 4.0 17 69
+ 5.90096 0 2 tcp 1040 ------- 0 0.0 4.0 18 70
- 5.90512 0 2 tcp 1040 ------- 0 0.0 4.0 18 70
r 5.924 3 2 ack 40 ------- 0 4.0 0.0 10 58
+ 5.924 2 0 ack 40 ------- 0 4.0 0.0 10 58
- 5.924 2 0 ack 40 ------- 0 4.0 0.0 10 58
r 5.96352 0 2 tcp 1040 ------- 0 0.0 4.0 15 66
+ 5.96352 2 3 tcp 1040 ------- 0 0.0 4.0 15 66
- 5.96352 2 3 tcp 1040 ------- 0 0.0 4.0 15 66
r 5.964 1 2 cbr 1000 ------- 0 1.0 5.0 36 68
+ 5.964 2 3 cbr 1000 ------- 0 1.0 5.0 36 68
r 5.9656 3 2 ack 40 ------- 0 4.0 0.0 11 59
+ 5.9656 2 0 ack 40 ------- 0 4.0 0.0 11 59
- 5.9656 2 0 ack 40 ------- 0 4.0 0.0 11 59
r 5.96768 0 2 tcp 1040 ------- 0 0.0 4.0 16 67
+ 5.96768 2 3 tcp 1040 ------- 0 0.0 4.0 16 67
r 5.968 3 5 cbr 1000 ------- 0 1.0 5.0 32 56
r 5.98256 2 0 ack 40 ------- 0 4.0 0.0 9 57
+ 5.98256 0 2 tcp 1040 ------- 0 0.0 4.0 19 71
- 5.98256 0 2 tcp 1040 ------- 0 0.0 4.0 19 71
+ 5.98256 0 2 tcp 1040 ------- 0 0.0 4.0 20 72
- 5.98672 0 2 tcp 1040 ------- 0 0.0 4.0 20 72
r 6.00512 0 2 tcp 1040 ------- 0 0.0 4.0 17 69
+ 6.00512 2 3 tcp 1040 ------- 0 0.0 4.0 17 69
- 6.00512 2 3 cbr 1000 ------- 0 1.0 5.0 36 68
r 6.0072 3 2 ack 40 ------- 0 4.0 0.0 12 61
+ 6.0072 2 0 ack 40 ------- 0 4.0 0.0 12 61
- 6.0072 2 0 ack 40 ------- 0 4.0 0.0 12 61
r 6.00928 0 2 tcp 1040 ------- 0 0.0 4.0 18 70
+ 6.00928 2 3 tcp 1040 ------- 0 0.0 4.0 18 70
+ 6.02 1 2 cbr 1000 ------- 0 1.0 5.0 37 73
- 6.02 1 2 cbr 1000 ------- 0 1.0 5.0 37 73
r 6.024 2 3 cbr 1000 ------- 0 1.0 5.0 33 60
+ 6.024 3 5 cbr 1000 ------- 0 1.0 5.0 33 60
- 6.024 3 5 cbr 1000 ------- 0 1.0 5.0 33 60
r 6.02416 2 0 ack 40 ------- 0 4.0 0.0 10 58
+ 6.02416 0 2 tcp 1040 ------- 0 0.0 4.0 21 74
- 6.02416 0 2 tcp 1040 ------- 0 0.0 4.0 21 74
+ 6.02416 0 2 tcp 1040 ------- 0 0.0 4.0 22 75
- 6.02832 0 2 tcp 1040 ------- 0 0.0 4.0 22 75
- 6.04512 2 3 tcp 1040 ------- 0 0.0 4.0 16 67
r 6.0488 3 2 ack 40 ------- 0 4.0 0.0 13 62
+ 6.0488 2 0 ack 40 ------- 0 4.0 0.0 13 62
- 6.0488 2 0 ack 40 ------- 0 4.0 0.0 13 62
r 6.06576 2 0 ack 40 ------- 0 4.0 0.0 11 59
+ 6.06576 0 2 tcp 1040 ------- 0 0.0 4.0 23 76
- 6.06576 0 2 tcp 1040 ------- 0 0.0 4.0 23 76
+ 6.06576 0 2 tcp 1040 ------- 0 0.0 4.0 24 77
- 6.06992 0 2 tcp 1040 ------- 0 0.0 4.0 24 77
r 6.08672 0 2 tcp 1040 ------- 0 0.0 4.0 19 71
+ 6.08672 2 3 tcp 1040 ------- 0 0.0 4.0 19 71
- 6.08672 2 3 tcp 1040 ------- 0 0.0 4.0 17 69
r 6.0904 3 2 ack 40 ------- 0 4.0 0.0 14 63
+ 6.0904 2 0 ack 40 ------- 0 4.0 0.0 14 63
- 6.0904 2 0 ack 40 ------- 0 4.0 0.0 14 63
r 6.09088 0 2 tcp 1040 ------- 0 0.0 4.0 20 72
+ 6.09088 2 3 tcp 1040 ------- 0 0.0 4.0 20 72
r 6.10736 2 0 ack 40 ------- 0 4.0 0.0 12 61
+ 6.10736 0 2 tcp 1040 ------- 0 0.0 4.0 25 78
- 6.10736 0 2 tcp 1040 ------- 0 0.0 4.0 25 78
+ 6.10736 0 2 tcp 1040 ------- 0 0.0 4.0 26 79
- 6.11152 0 2 tcp 1040 ------- 0 0.0 4.0 26 79
r 6.124 1 2 cbr 1000 ------- 0 1.0 5.0 37 73
+ 6.124 2 3 cbr 1000 ------- 0 1.0 5.0 37 73
r 6.128 3 5 cbr 1000 ------- 0 1.0 5.0 33 60
r 6.12832 0 2 tcp 1040 ------- 0 0.0 4.0 21 74
+ 6.12832 2 3 tcp 1040 ------- 0 0.0 4.0 21 74
- 6.12832 2 3 tcp 1040 ------- 0 0.0 4.0 18 70
r 6.13248 0 2 tcp 1040 ------- 0 0.0 4.0 22 75
+ 6.13248 2 3 tcp 1040 ------- 0 0.0 4.0 22 75
r 6.14896 2 0 ack 40 ------- 0 4.0 0.0 13 62
+ 6.14896 0 2 tcp 1040 ------- 0 0.0 4.0 27 80
- 6.14896 0 2 tcp 1040 ------- 0 0.0 4.0 27 80
+ 6.14896 0 2 tcp 1040 ------- 0 0.0 4.0 28 81
- 6.15312 0 2 tcp 1040 ------- 0 0.0 4.0 28 81
r 6.16992 0 2 tcp 1040 ------- 0 0.0 4.0 23 76
+ 6.16992 2 3 tcp 1040 ------- 0 0.0 4.0 23 76
d 6.16992 2 3 tcp 1040 ------- 0 0.0 4.0 23 76
- 6.16992 2 3 tcp 1040 ------- 0 0.0 4.0 19 71
r 6.17408 0 2 tcp 1040 ------- 0 0.0 4.0 24 77
+ 6.17408 2 3 tcp 1040 ------- 0 0.0 4.0 24 77
+ 6.18 1 2 cbr 1000 ------- 0 1.0 5.0 38 82
- 6.18 1 2 cbr 1000 ------- 0 1.0 5.0 38 82
r 6.184 2 3 cbr 1000 ------- 0 1.0 5.0 34 64
+ 6.184 3 5 cbr 1000 ------- 0 1.0 5.0 34 64
- 6.184 3 5 cbr 1000 ------- 0 1.0 5.0 34 64
r 6.19056 2 0 ack 40 ------- 0 4.0 0.0 14 63
+ 6.19056 0 2 tcp 1040 ------- 0 0.0 4.0 29 83
- 6.19056 0 2 tcp 1040 ------- 0 0.0 4.0 29 83
+ 6.19056 0 2 tcp 1040 ------- 0 0.0 4.0 30 84
- 6.19472 0 2 tcp 1040 ------- 0 0.0 4.0 30 84
r 6.21152 0 2 tcp 1040 ------- 0 0.0 4.0 25 78
+ 6.21152 2 3 tcp 1040 ------- 0 0.0 4.0 25 78
d 6.21152 2 3 tcp 1040 ------- 0 0.0 4.0 25 78
- 6.21152 2 3 tcp 1040 ------- 0 0.0 4.0 20 72
r 6.21568 0 2 tcp 1040 ------- 0 0.0 4.0 26 79
+ 6.21568 2 3 tcp 1040 ------- 0 0.0 4.0 26 79
r 6.25312 0 2 tcp 1040 ------- 0 0.0 4.0 27 80
+ 6.25312 2 3 tcp 1040 ------- 0 0.0 4.0 27 80
d 6.25312 2 3 tcp 1040 ------- 0 0.0 4.0 27 80
- 6.25312 2 3 cbr 1000 ------- 0 1.0 5.0 37 73