+ 0.1 0 2 tcp 40 ------- 0 0.0 4.0 0 0
- 0.1 0 2 tcp 40 ------- 0 0.0 4.0 0 0
r 0.120064 0 2 tcp 40 ------- 0 0.0 4.0 0 0
+ 0.120064 2 3 tcp 40 ------- 0 0.0 4.0 0 0
- 0.120064 2 3 tcp 40 ------- 0 0.0 4.0 0 0
r 0.220704 2 3 tcp 40 ------- 0 0.0 4.0 0 0
+ 0.220704 3 4 tcp 40 ------- 0 0.0 4.0 0 0
- 0.220704 3 4 tcp 40 ------- 0 0.0 4.0 0 0
r 0.240768 3 4 tcp 40 ------- 0 0.0 4.0 0 0
+ 0.240768 4 3 ack 40 ------- 0 4.0 0.0 0 1
- 0.240768 4 3 ack 40 ------- 0 4.0 0.0 0 1
r 0.260832 4 3 ack 40 ------- 0 4.0 0.0 0 1
+ 0.260832 3 2 ack 40 ------- 0 4.0 0.0 0 1
- 0.260832 3 2 ack 40 ------- 0 4.0 0.0 0 1
r 0.361472 3 2 ack 40 ------- 0 4.0 0.0 0 1
+ 0.361472 2 0 ack 40 ------- 0 4.0 0.0 0 1
- 0.361472 2 0 ack 40 ------- 0 4.0 0.0 0 1
r 0.381536 2 0 ack 40 ------- 0 4.0 0.0 0 1
+ 0.381536 0 2 tcp 1040 ------- 0 0.0 4.0 1 2
- 0.381536 0 2 tcp 1040 ------- 0 0.0 4.0 1 2
+ 0.381536 0 2 tcp 1040 ------- 0 0.0 4.0 2 3
- 0.3832 0 2 tcp 1040 ------- 0 0.0 4.0 2 3
r 0.4032 0 2 tcp 1040 ------- 0 0.0 4.0 1 2
+ 0.4032 2 3 tcp 1040 ------- 0 0.0 4.0 1 2
- 0.4032 2 3 tcp 1040 ------- 0 0.0 4.0 1 2
r 0.404864 0 2 tcp 1040 ------- 0 0.0 4.0 2 3
+ 0.404864 2 3 tcp 1040 ------- 0 0.0 4.0 2 3
- 0.41984 2 3 tcp 1040 ------- 0 0.0 4.0 2 3
r 0.51984 2 3 tcp 1040 ------- 0 0.0 4.0 1 2
+ 0.51984 3 4 tcp 1040 ------- 0 0.0 4.0 1 2
- 0.51984 3 4 tcp 1040 ------- 0 0.0 4.0 1 2
r 0.53648 2 3 tcp 1040 ------- 0 0.0 4.0 2 3
+ 0.53648 3 4 tcp 1040 ------- 0 0.0 4.0 2 3
- 0.53648 3 4 tcp 1040 ------- 0 0.0 4.0 2 3
r 0.541504 3 4 tcp 1040 ------- 0 0.0 4.0 1 2
+ 0.541504 4 3 ack 40 ------- 0 4.0 0.0 1 4
- 0.541504 4 3 ack 40 ------- 0 4.0 0.0 1 4
r 0.558144 3 4 tcp 1040 ------- 0 0.0 4.0 2 3
+ 0.558144 4 3 ack 40 ------- 0 4.0 0.0 2 5
- 0.558144 4 3 ack 40 ------- 0 4.0 0.0 2 5
r 0.561568 4 3 ack 40 ------- 0 4.0 0.0 1 4
+ 0.561568 3 2 ack 40 ------- 0 4.0 0.0 1 4
- 0.561568 3 2 ack 40 ------- 0 4.0 0.0 1 4
r 0.578208 4 3 ack 40 ------- 0 4.0 0.0 2 5
+ 0.578208 3 2 ack 40 ------- 0 4.0 0.0 2 5
- 0.578208 3 2 ack 40 ------- 0 4.0 0.0 2 5
r 0.662208 3 2 ack 40 ------- 0 4.0 0.0 1 4
+ 0.662208 2 0 ack 40 ------- 0 4.0 0.0 1 4
- 0.662208 2 0 ack 40 ------- 0 4.0 0.0 1 4
r 0.678848 3 2 ack 40 ------- 0 4.0 0.0 2 5
+ 0.678848 2 0 ack 40 ------- 0 4.0 0.0 2 5
- 0.678848 2 0 ack 40 ------- 0 4.0 0.0 2 5
r 0.682272 2 0 ack 40 ------- 0 4.0 0.0 1 4
+ 0.682272 0 2 tcp 1040 ------- 0 0.0 4.0 3 6
- 0.682272 0 2 tcp 1040 ------- 0 0.0 4.0 3 6
+ 0.682272 0 2 tcp 1040 ------- 0 0.0 4.0 4 7
- 0.683936 0 2 tcp 1040 ------- 0 0.0 4.0 4 7
r 0.698912 2 0 ack 40 ------- 0 4.0 0.0 2 5
+ 0.698912 0 2 tcp 1040 ------- 0 0.0 4.0 5 8
- 0.698912 0 2 tcp 1040 ------- 0 0.0 4.0 5 8
+ 0.698912 0 2 tcp 1040 ------- 0 0.0 4.0 6 9
- 0.700576 0 2 tcp 1040 ------- 0 0.0 4.0 6 9
r 0.703936 0 2 tcp 1040 ------- 0 0.0 4.0 3 6
+ 0.703936 2 3 tcp 1040 ------- 0 0.0 4.0 3 6
- 0.703936 2 3 tcp 1040 ------- 0 0.0 4.0 3 6
r 0.7056 0 2 tcp 1040 ------- 0 0.0 4.0 4 7
+ 0.7056 2 3 tcp 1040 ------- 0 0.0 4.0 4 7
r 0.720576 0 2 tcp 1040 ------- 0 0.0 4.0 5 8
+ 0.720576 2 3 tcp 1040 ------- 0 0.0 4.0 5 8
- 0.720576 2 3 tcp 1040 ------- 0 0.0 4.0 4 7
r 0.72224 0 2 tcp 1040 ------- 0 0.0 4.0 6 9
+ 0.72224 2 3 tcp 1040 ------- 0 0.0 4.0 6 9
- 0.737216 2 3 tcp 1040 ------- 0 0.0 4.0 5 8
- 0.753856 2 3 tcp 1040 ------- 0 0.0 4.0 6 9
r 0.820576 2 3 tcp 1040 ------- 0 0.0 4.0 3 6
+ 0.820576 3 4 tcp 1040 ------- 0 0.0 4.0 3 6
- 0.820576 3 4 tcp 1040 ------- 0 0.0 4.0 3 6
r 0.837216 2 3 tcp 1040 ------- 0 0.0 4.0 4 7
+ 0.837216 3 4 tcp 1040 ------- 0 0.0 4.0 4 7
- 0.837216 3 4 tcp 1040 ------- 0 0.0 4.0 4 7
r 0.84224 3 4 tcp 1040 ------- 0 0.0 4.0 3 6
+ 0.84224 4 3 ack 40 ------- 0 4.0 0.0 3 10
- 0.84224 4 3 ack 40 ------- 0 4.0 0.0 3 10
r 0.853856 2 3 tcp 1040 ------- 0 0.0 4.0 5 8
+ 0.853856 3 4 tcp 1040 ------- 0 0.0 4.0 5 8
- 0.853856 3 4 tcp 1040 ------- 0 0.0 4.0 5 8
r 0.85888 3 4 tcp 1040 ------- 0 0.0 4.0 4 7
+ 0.85888 4 3 ack 40 ------- 0 4.0 0.0 4 11
- 0.85888 4 3 ack 40 ------- 0 4.0 0.0 4 11
r 0.862304 4 3 ack 40 ------- 0 4.0 0.0 3 10
+ 0.862304 3 2 ack 40 ------- 0 4.0 0.0 3 10
- 0.862304 3 2 ack 40 ------- 0 4.0 0.0 3 10
r 0.870496 2 3 tcp 1040 ------- 0 0.0 4.0 6 9
+ 0.870496 3 4 tcp 1040 ------- 0 0.0 4.0 6 9
- 0.870496 3 4 tcp 1040 ------- 0 0.0 4.0 6 9
r 0.87552 3 4 tcp 1040 ------- 0 0.0 4.0 5 8
+ 0.87552 4 3 ack 40 ------- 0 4.0 0.0 5 12
- 0.87552 4 3 ack 40 ------- 0 4.0 0.0 5 12
r 0.878944 4 3 ack 40 ------- 0 4.0 0.0 4 11
+ 0.878944 3 2 ack 40 ------- 0 4.0 0.0 4 11
- 0.878944 3 2 ack 40 ------- 0 4.0 0.0 4 11
r 0.89216 3 4 tcp 1040 ------- 0 0.0 4.0 6 9
+ 0.89216 4 3 ack 40 ------- 0 4.0 0.0 6 13
- 0.89216 4 3 ack 40 ------- 0 4.0 0.0 6 13
r 0.895584 4 3 ack 40 ------- 0 4.0 0.0 5 12
+ 0.895584 3 2 ack 40 ------- 0 4.0 0.0 5 12
- 0.895584 3 2 ack 40 ------- 0 4.0 0.0 5 12
r 0.912224 4 3 ack 40 ------- 0 4.0 0.0 6 13
+ 0.912224 3 2 ack 40 ------- 0 4.0 0.0 6 13
- 0.912224 3 2 ack 40 ------- 0 4.0 0.0 6 13
r 0.962944 3 2 ack 40 ------- 0 4.0 0.0 3 10
+ 0.962944 2 0 ack 40 ------- 0 4.0 0.0 3 10
- 0.962944 2 0 ack 40 ------- 0 4.0 0.0 3 10
r 0.979584 3 2 ack 40 ------- 0 4.0 0.0 4 11
+ 0.979584 2 0 ack 40 ------- 0 4.0 0.0 4 11
- 0.979584 2 0 ack 40 ------- 0 4.0 0.0 4 11
r 0.983008 2 0 ack 40 ------- 0 4.0 0.0 3 10
+ 0.983008 0 2 tcp 1040 ------- 0 0.0 4.0 7 14
- 0.983008 0 2 tcp 1040 ------- 0 0.0 4.0 7 14
+ 0.983008 0 2 tcp 1040 ------- 0 0.0 4.0 8 15
- 0.984672 0 2 tcp 1040 ------- 0 0.0 4.0 8 15
r 0.996224 3 2 ack 40 ------- 0 4.0 0.0 5 12
+ 0.996224 2 0 ack 40 ------- 0 4.0 0.0 5 12
- 0.996224 2 0 ack 40 ------- 0 4.0 0.0 5 12
r 0.999648 2 0 ack 40 ------- 0 4.0 0.0 4 11
+ 0.999648 0 2 tcp 1040 ------- 0 0.0 4.0 9 16
- 0.999648 0 2 tcp 1040 ------- 0 0.0 4.0 9 16
+ 0.999648 0 2 tcp 1040 ------- 0 0.0 4.0 10 17
- 1.001312 0 2 tcp 1040 ------- 0 0.0 4.0 10 17
r 1.004672 0 2 tcp 1040 ------- 0 0.0 4.0 7 14
+ 1.004672 2 3 tcp 1040 ------- 0 0.0 4.0 7 14
- 1.004672 2 3 tcp 1040 ------- 0 0.0 4.0 7 14
r 1.006336 0 2 tcp 1040 ------- 0 0.0 4.0 8 15
+ 1.006336 2 3 tcp 1040 ------- 0 0.0 4.0 8 15
r 1.012864 3 2 ack 40 ------- 0 4.0 0.0 6 13
+ 1.012864 2 0 ack 40 ------- 0 4.0 0.0 6 13
- 1.012864 2 0 ack 40 ------- 0 4.0 0.0 6 13
r 1.016288 2 0 ack 40 ------- 0 4.0 0.0 5 12
+ 1.016288 0 2 tcp 1040 ------- 0 0.0 4.0 11 18
- 1.016288 0 2 tcp 1040 ------- 0 0.0 4.0 11 18
+ 1.016288 0 2 tcp 1040 ------- 0 0.0 4.0 12 19
- 1.017952 0 2 tcp 1040 ------- 0 0.0 4.0 12 19
r 1.021312 0 2 tcp 1040 ------- 0 0.0 4.0 9 16
+ 1.021312 2 3 tcp 1040 ------- 0 0.0 4.0 9 16
- 1.021312 2 3 tcp 1040 ------- 0 0.0 4.0 8 15
r 1.022976 0 2 tcp 1040 ------- 0 0.0 4.0 10 17
+ 1.022976 2 3 tcp 1040 ------- 0 0.0 4.0 10 17
r 1.032928 2 0 ack 40 ------- 0 4.0 0.0 6 13
+ 1.032928 0 2 tcp 1040 ------- 0 0.0 4.0 13 20
- 1.032928 0 2 tcp 1040 ------- 0 0.0 4.0 13 20
+ 1.032928 0 2 tcp 1040 ------- 0 0.0 4.0 14 21
- 1.034592 0 2 tcp 1040 ------- 0 0.0 4.0 14 21
r 1.037952 0 2 tcp 1040 ------- 0 0.0 4.0 11 18
+ 1.037952 2 3 tcp 1040 ------- 0 0.0 4.0 11 18
- 1.037952 2 3 tcp 1040 ------- 0 0.0 4.0 9 16
r 1.039616 0 2 tcp 1040 ------- 0 0.0 4.0 12 19
+ 1.039616 2 3 tcp 1040 ------- 0 0.0 4.0 12 19
r 1.054592 0 2 tcp 1040 ------- 0 0.0 4.0 13 20
+ 1.054592 2 3 tcp 1040 ------- 0 0.0 4.0 13 20
- 1.054592 2 3 tcp 1040 ------- 0 0.0 4.0 10 17
r 1.056256 0 2 tcp 1040 ------- 0 0.0 4.0 14 21
+ 1.056256 2 3 tcp 1040 ------- 0 0.0 4.0 14 21
- 1.071232 2 3 tcp 1040 ------- 0 0.0 4.0 11 18
- 1.087872 2 3 tcp 1040 ------- 0 0.0 4.0 12 19
- 1.104512 2 3 tcp 1040 ------- 0 0.0 4.0 13 20
- 1.121152 2 3 tcp 1040 ------- 0 0.0 4.0 14 21
r 1.121312 2 3 tcp 1040 ------- 0 0.0 4.0 7 14
+ 1.121312 3 4 tcp 1040 ------- 0 0.0 4.0 7 14
- 1.121312 3 4 tcp 1040 ------- 0 0.0 4.0 7 14
r 1.137952 2 3 tcp 1040 ------- 0 0.0 4.0 8 15
+ 1.137952 3 4 tcp 1040 ------- 0 0.0 4.0 8 15
- 1.137952 3 4 tcp 1040 ------- 0 0.0 4.0 8 15
r 1.142976 3 4 tcp 1040 ------- 0 0.0 4.0 7 14
+ 1.142976 4 3 ack 40 ------- 0 4.0 0.0 7 22
- 1.142976 4 3 ack 40 ------- 0 4.0 0.0 7 22
r 1.154592 2 3 tcp 1040 ------- 0 0.0 4.0 9 16
+ 1.154592 3 4 tcp 1040 ------- 0 0.0 4.0 9 16
- 1.154592 3 4 tcp 1040 ------- 0 0.0 4.0 9 16
r 1.159616 3 4 tcp 1040 ------- 0 0.0 4.0 8 15
+ 1.159616 4 3 ack 40 ------- 0 4.0 0.0 8 23
- 1.159616 4 3 ack 40 ------- 0 4.0 0.0 8 23
r 1.16304 4 3 ack 40 ------- 0 4.0 0.0 7 22
+ 1.16304 3 2 ack 40 ------- 0 4.0 0.0 7 22
- 1.16304 3 2 ack 40 ------- 0 4.0 0.0 7 22
r 1.171232 2 3 tcp 1040 ------- 0 0.0 4.0 10 17
+ 1.171232 3 4 tcp 1040 ------- 0 0.0 4.0 10 17
- 1.171232 3 4 tcp 1040 ------- 0 0.0 4.0 10 17
r 1.176256 3 4 tcp 1040 ------- 0 0.0 4.0 9 16
+ 1.176256 4 3 ack 40 ------- 0 4.0 0.0 9 24
- 1.176256 4 3 ack 40 ------- 0 4.0 0.0 9 24
r 1.17968 4 3 ack 40 ------- 0 4.0 0.0 8 23
+ 1.17968 3 2 ack 40 ------- 0 4.0 0.0 8 23
- 1.17968 3 2 ack 40 ------- 0 4.0 0.0 8 23
r 1.187872 2 3 tcp 1040 ------- 0 0.0 4.0 11 18
+ 1.187872 3 4 tcp 1040 ------- 0 0.0 4.0 11 18
- 1.187872 3 4 tcp 1040 ------- 0 0.0 4.0 11 18
r 1.192896 3 4 tcp 1040 ------- 0 0.0 4.0 10 17
+ 1.192896 4 3 ack 40 ------- 0 4.0 0.0 10 25
- 1.192896 4 3 ack 40 ------- 0 4.0 0.0 10 25
r 1.19632 4 3 ack 40 ------- 0 4.0 0.0 9 24
+ 1.19632 3 2 ack 40 ------- 0 4.0 0.0 9 24
- 1.19632 3 2 ack 40 ------- 0 4.0 0.0 9 24
r 1.204512 2 3 tcp 1040 ------- 0 0.0 4.0 12 19
+ 1.204512 3 4 tcp 1040 ------- 0 0.0 4.0 12 19
- 1.204512 3 4 tcp 1040 ------- 0 0.0 4.0 12 19
r 1.209536 3 4 tcp 1040 ------- 0 0.0 4.0 11 18
+ 1.209536 4 3 ack 40 ------- 0 4.0 0.0 11 26
- 1.209536 4 3 ack 40 ------- 0 4.0 0.0 11 26
r 1.21296 4 3 ack 40 ------- 0 4.0 0.0 10 25
+ 1.21296 3 2 ack 40 ------- 0 4.0 0.0 10 25
- 1.21296 3 2 ack 40 ------- 0 4.0 0.0 10 25
r 1.221152 2 3 tcp 1040 ------- 0 0.0 4.0 13 20
+ 1.221152 3 4 tcp 1040 ------- 0 0.0 4.0 13 20
- 1.221152 3 4 tcp 1040 ------- 0 0.0 4.0 13 20
r 1.226176 3 4 tcp 1040 ------- 0 0.0 4.0 12 19
+ 1.226176 4 3 ack 40 ------- 0 4.0 0.0 12 27
- 1.226176 4 3 ack 40 ------- 0 4.0 0.0 12 27
r 1.2296 4 3 ack 40 ------- 0 4.0 0.0 11 26
+ 1.2296 3 2 ack 40 ------- 0 4.0 0.0 11 26
- 1.2296 3 2 ack 40 ------- 0 4.0 0.0 11 26
r 1.237792 2 3 tcp 1040 ------- 0 0.0 4.0 14 21
+ 1.237792 3 4 tcp 1040 ------- 0 0.0 4.0 14 21
- 1.237792 3 4 tcp 1040 ------- 0 0.0 4.0 14 21
r 1.242816 3 4 tcp 1040 ------- 0 0.0 4.0 13 20
+ 1.242816 4 3 ack 40 ------- 0 4.0 0.0 13 28
- 1.242816 4 3 ack 40 ------- 0 4.0 0.0 13 28
r 1.24624 4 3 ack 40 ------- 0 4.0 0.0 12 27
+ 1.24624 3 2 ack 40 ------- 0 4.0 0.0 12 27
- 1.24624 3 2 ack 40 ------- 0 4.0 0.0 12 27
r 1.259456 3 4 tcp 1040 ------- 0 0.0 4.0 14 21
+ 1.259456 4 3 ack 40 ------- 0 4.0 0.0 14 29
- 1.259456 4 3 ack 40 ------- 0 4.0 0.0 14 29
r 1.26288 4 3 ack 40 ------- 0 4.0 0.0 13 28
+ 1.26288 3 2 ack 40 ------- 0 4.0 0.0 13 28
- 1.26288 3 2 ack 40 ------- 0 4.0 0.0 13 28
r 1.26368 3 2 ack 40 ------- 0 4.0 0.0 7 22
+ 1.26368 2 0 ack 40 ------- 0 4.0 0.0 7 22
- 1.26368 2 0 ack 40 ------- 0 4.0 0.0 7 22
r 1.27952 4 3 ack 40 ------- 0 4.0 0.0 14 29
+ 1.27952 3 2 ack 40 ------- 0 4.0 0.0 14 29
- 1.27952 3 2 ack 40 ------- 0 4.0 0.0 14 29
r 1.28032 3 2 ack 40 ------- 0 4.0 0.0 8 23
+ 1.28032 2 0 ack 40 ------- 0 4.0 0.0 8 23
- 1.28032 2 0 ack 40 ------- 0 4.0 0.0 8 23
r 1.283744 2 0 ack 40 ------- 0 4.0 0.0 7 22
+ 1.283744 0 2 tcp 1040 ------- 0 0.0 4.0 15 30
- 1.283744 0 2 tcp 1040 ------- 0 0.0 4.0 15 30
+ 1.283744 0 2 tcp 1040 ------- 0 0.0 4.0 16 31
- 1.285408 0 2 tcp 1040 ------- 0 0.0 4.0 16 31
r 1.29696 3 2 ack 40 ------- 0 4.0 0.0 9 24
+ 1.29696 2 0 ack 40 ------- 0 4.0 0.0 9 24
- 1.29696 2 0 ack 40 ------- 0 4.0 0.0 9 24
r 1.300384 2 0 ack 40 ------- 0 4.0 0.0 8 23
+ 1.300384 0 2 tcp 1040 ------- 0 0.0 4.0 17 32
- 1.300384 0 2 tcp 1040 ------- 0 0.0 4.0 17 32
+ 1.300384 0 2 tcp 1040 ------- 0 0.0 4.0 18 33
- 1.302048 0 2 tcp 1040 ------- 0 0.0 4.0 18 33
r 1.305408 0 2 tcp 1040 ------- 0 0.0 4.0 15 30
+ 1.305408 2 3 tcp 1040 ------- 0 0.0 4.0 15 30
- 1.305408 2 3 tcp 1040 ------- 0 0.0 4.0 15 30
r 1.307072 0 2 tcp 1040 ------- 0 0.0 4.0 16 31
+ 1.307072 2 3 tcp 1040 ------- 0 0.0 4.0 16 31
r 1.3136 3 2 ack 40 ------- 0 4.0 0.0 10 25
+ 1.3136 2 0 ack 40 ------- 0 4.0 0.0 10 25
- 1.3136 2 0 ack 40 ------- 0 4.0 0.0 10 25
r 1.317024 2 0 ack 40 ------- 0 4.0 0.0 9 24
+ 1.317024 0 2 tcp 1040 ------- 0 0.0 4.0 19 34
- 1.317024 0 2 tcp 1040 ------- 0 0.0 4.0 19 34
+ 1.317024 0 2 tcp 1040 ------- 0 0.0 4.0 20 35
- 1.318688 0 2 tcp 1040 ------- 0 0.0 4.0 20 35
r 1.322048 0 2 tcp 1040 ------- 0 0.0 4.0 17 32
+ 1.322048 2 3 tcp 1040 ------- 0 0.0 4.0 17 32
- 1.322048 2 3 tcp 1040 ------- 0 0.0 4.0 16 31
r 1.323712 0 2 tcp 1040 ------- 0 0.0 4.0 18 33
+ 1.323712 2 3 tcp 1040 ------- 0 0.0 4.0 18 33
r 1.33024 3 2 ack 40 ------- 0 4.0 0.0 11 26
+ 1.33024 2 0 ack 40 ------- 0 4.0 0.0 11 26
- 1.33024 2 0 ack 40 ------- 0 4.0 0.0 11 26
r 1.333664 2 0 ack 40 ------- 0 4.0 0.0 10 25
+ 1.333664 0 2 tcp 1040 ------- 0 0.0 4.0 21 36
- 1.333664 0 2 tcp 1040 ------- 0 0.0 4.0 21 36
+ 1.333664 0 2 tcp 1040 ------- 0 0.0 4.0 22 37
- 1.335328 0 2 tcp 1040 ------- 0 0.0 4.0 22 37
r 1.338688 0 2 tcp 1040 ------- 0 0.0 4.0 19 34
+ 1.338688 2 3 tcp 1040 ------- 0 0.0 4.0 19 34
- 1.338688 2 3 tcp 1040 ------- 0 0.0 4.0 17 32
r 1.340352 0 2 tcp 1040 ------- 0 0.0 4.0 20 35
+ 1.340352 2 3 tcp 1040 ------- 0 0.0 4.0 20 35
r 1.34688 3 2 ack 40 ------- 0 4.0 0.0 12 27
+ 1.34688 2 0 ack 40 ------- 0 4.0 0.0 12 27
- 1.34688 2 0 ack 40 ------- 0 4.0 0.0 12 27
r 1.350304 2 0 ack 40 ------- 0 4.0 0.0 11 26
+ 1.350304 0 2 tcp 1040 ------- 0 0.0 4.0 23 38
- 1.350304 0 2 tcp 1040 ------- 0 0.0 4.0 23 38
+ 1.350304 0 2 tcp 1040 ------- 0 0.0 4.0 24 39
- 1.351968 0 2 tcp 1040 ------- 0 0.0 4.0 24 39
r 1.355328 0 2 tcp 1040 ------- 0 0.0 4.0 21 36
+ 1.355328 2 3 tcp 1040 ------- 0 0.0 4.0 21 36
- 1.355328 2 3 tcp 1040 ------- 0 0.0 4.0 18 33
r 1.356992 0 2 tcp 1040 ------- 0 0.0 4.0 22 37
+ 1.356992 2 3 tcp 1040 ------- 0 0.0 4.0 22 37
r 1.36352 3 2 ack 40 ------- 0 4.0 0.0 13 28
+ 1.36352 2 0 ack 40 ------- 0 4.0 0.0 13 28
- 1.36352 2 0 ack 40 ------- 0 4.0 0.0 13 28
r 1.366944 2 0 ack 40 ------- 0 4.0 0.0 12 27
+ 1.366944 0 2 tcp 1040 ------- 0 0.0 4.0 25 40
- 1.366944 0 2 tcp 1040 ------- 0 0.0 4.0 25 40
+ 1.366944 0 2 tcp 1040 ------- 0 0.0 4.0 26 41
- 1.368608 0 2 tcp 1040 ------- 0 0.0 4.0 26 41
r 1.371968 0 2 tcp 1040 ------- 0 0.0 4.0 23 38
+ 1.371968 2 3 tcp 1040 ------- 0 0.0 4.0 23 38
d 1.371968 2 3 tcp 1040 ------- 0 0.0 4.0 23 38
- 1.371968 2 3 tcp 1040 ------- 0 0.0 4.0 19 34
r 1.373632 0 2 tcp 1040 ------- 0 0.0 4.0 24 39
+ 1.373632 2 3 tcp 1040 ------- 0 0.0 4.0 24 39
r 1.38016 3 2 ack 40 ------- 0 4.0 0.0 14 29
+ 1.38016 2 0 ack 40 ------- 0 4.0 0.0 14 29
- 1.38016 2 0 ack 40 ------- 0 4.0 0.0 14 29
r 1.383584 2 0 ack 40 ------- 0 4.0 0.0 13 28
+ 1.383584 0 2 tcp 1040 ------- 0 0.0 4.0 27 42
- 1.383584 0 2 tcp 1040 ------- 0 0.0 4.0 27 42
+ 1.383584 0 2 tcp 1040 ------- 0 0.0 4.0 28 43
- 1.385248 0 2 tcp 1040 ------- 0 0.0 4.0 28 43
r 1.388608 0 2 tcp 1040 ------- 0 0.0 4.0 25 40
+ 1.388608 2 3 tcp 1040 ------- 0 0.0 4.0 25 40
d 1.388608 2 3 tcp 1040 ------- 0 0.0 4.0 25 40
- 1.388608 2 3 tcp 1040 ------- 0 0.0 4.0 20 35
r 1.390272 0 2 tcp 1040 ------- 0 0.0 4.0 26 41
+ 1.390272 2 3 tcp 1040 ------- 0 0.0 4.0 26 41
r 1.400224 2 0 ack 40 ------- 0 4.0 0.0 14 29
+ 1.400224 0 2 tcp 1040 ------- 0 0.0 4.0 29 44
- 1.400224 0 2 tcp 1040 ------- 0 0.0 4.0 29 44
+ 1.400224 0 2 tcp 1040 ------- 0 0.0 4.0 30 45
- 1.401888 0 2 tcp 1040 ------- 0 0.0 4.0 30 45
r 1.405248 0 2 tcp 1040 ------- 0 0.0 4.0 27 42
+ 1.405248 2 3 tcp 1040 ------- 0 0.0 4.0 27 42
d 1.405248 2 3 tcp 1040 ------- 0 0.0 4.0 27 42
- 1.405248 2 3 tcp 1040 ------- 0 0.0 4.0 21 36
r 1.406912 0 2 tcp 1040 ------- 0 0.0 4.0 28 43
+ 1.406912 2 3 tcp 1040 ------- 0 0.0 4.0 28 43
r 1.421888 0 2 tcp 1040 ------- 0 0.0 4.0 29 44
+ 1.421888 2 3 tcp 1040 ------- 0 0.0 4.0 29 44
d 1.421888 2 3 tcp 1040 ------- 0 0.0 4.0 29 44
- 1.421888 2 3 tcp 1040 ------- 0 0.0 4.0 22 37
r 1.422048 2 3 tcp 1040 ------- 0 0.0 4.0 15 30
+ 1.422048 3 4 tcp 1040 ------- 0 0.0 4.0 15 30
- 1.422048 3 4 tcp 1040 ------- 0 0.0 4.0 15 30
r 1.423552 0 2 tcp 1040 ------- 0 0.0 4.0 30 45
+ 1.423552 2 3 tcp 1040 ------- 0 0.0 4.0 30 45
- 1.438528 2 3 tcp 1040 ------- 0 0.0 4.0 24 39
r 1.438688 2 3 tcp 1040 ------- 0 0.0 4.0 16 31
+ 1.438688 3 4 tcp 1040 ------- 0 0.0 4.0 16 31
- 1.438688 3 4 tcp 1040 ------- 0 0.0 4.0 16 31
r 1.443712 3 4 tcp 1040 ------- 0 0.0 4.0 15 30
+ 1.443712 4 3 ack 40 ------- 0 4.0 0.0 15 46
- 1.443712 4 3 ack 40 ------- 0 4.0 0.0 15 46
- 1.455168 2 3 tcp 1040 ------- 0 0.0 4.0 26 41
r 1.455328 2 3 tcp 1040 ------- 0 0.0 4.0 17 32
+ 1.455328 3 4 tcp 1040 ------- 0 0.0 4.0 17 32
- 1.455328 3 4 tcp 1040 ------- 0 0.0 4.0 17 32
r 1.460352 3 4 tcp 1040 ------- 0 0.0 4.0 16 31
+ 1.460352 4 3 ack 40 ------- 0 4.0 0.0 16 47
- 1.460352 4 3 ack 40 ------- 0 4.0 0.0 16 47
r 1.463776 4 3 ack 40 ------- 0 4.0 0.0 15 46
+ 1.463776 3 2 ack 40 ------- 0 4.0 0.0 15 46
- 1.463776 3 2 ack 40 ------- 0 4.0 0.0 15 46
- 1.471808 2 3 tcp 1040 ------- 0 0.0 4.0 28 43
r 1.471968 2 3 tcp 1040 ------- 0 0.0 4.0 18 33
+ 1.471968 3 4 tcp 1040 ------- 0 0.0 4.0 18 33
- 1.471968 3 4 tcp 1040 ------- 0 0.0 4.0 18 33
r 1.476992 3 4 tcp 1040 ------- 0 0.0 4.0 17 32
+ 1.476992 4 3 ack 40 ------- 0 4.0 0.0 17 48
- 1.476992 4 3 ack 40 ------- 0 4.0 0.0 17 48
r 1.480416 4 3 ack 40 ------- 0 4.0 0.0 16 47
+ 1.480416 3 2 ack 40 ------- 0 4.0 0.0 16 47
- 1.480416 3 2 ack 40 ------- 0 4.0 0.0 16 47
- 1.488448 2 3 tcp 1040 ------- 0 0.0 4.0 30 45
r 1.488608 2 3 tcp 1040 ------- 0 0.0 4.0 19 34
+ 1.488608 3 4 tcp 1040 ------- 0 0.0 4.0 19 34
- 1.488608 3 4 tcp 1040 ------- 0 0.0 4.0 19 34
r 1.493632 3 4 tcp 1040 ------- 0 0.0 4.0 18 33
+ 1.493632 4 3 ack 40 ------- 0 4.0 0.0 18 49
- 1.493632 4 3 ack 40 ------- 0 4.0 0.0 18 49
r 1.497056 4 3 ack 40 ------- 0 4.0 0.0 17 48
+ 1.497056 3 2 ack 40 ------- 0 4.0 0.0 17 48
- 1.497056 3 2 ack 40 ------- 0 4.0 0.0 17 48
r 1.505248 2 3 tcp 1040 ------- 0 0.0 4.0 20 35
+ 1.505248 3 4 tcp 1040 ------- 0 0.0 4.0 20 35
- 1.505248 3 4 tcp 1040 ------- 0 0.0 4.0 20 35
r 1.510272 3 4 tcp 1040 ------- 0 0.0 4.0 19 34
+ 1.510272 4 3 ack 40 ------- 0 4.0 0.0 19 50
- 1.510272 4 3 ack 40 ------- 0 4.0 0.0 19 50
r 1.513696 4 3 ack 40 ------- 0 4.0 0.0 18 49
+ 1.513696 3 2 ack 40 ------- 0 4.0 0.0 18 49
- 1.513696 3 2 ack 40 ------- 0 4.0 0.0 18 49
r 1.521888 2 3 tcp 1040 ------- 0 0.0 4.0 21 36
+ 1.521888 3 4 tcp 1040 ------- 0 0.0 4.0 21 36
- 1.521888 3 4 tcp 1040 ------- 0 0.0 4.0 21 36
r 1.526912 3 4 tcp 1040 ------- 0 0.0 4.0 20 35
+ 1.526912 4 3 ack 40 ------- 0 4.0 0.0 20 51
- 1.526912 4 3 ack 40 ------- 0 4.0 0.0 20 51
r 1.530336 4 3 ack 40 ------- 0 4.0 0.0 19 50
+ 1.530336 3 2 ack 40 ------- 0 4.0 0.0 19 50
- 1.530336 3 2 ack 40 ------- 0 4.0 0.0 19 50
r 1.538528 2 3 tcp 1040 ------- 0 0.0 4.0 22 37
+ 1.538528 3 4 tcp 1040 ------- 0 0.0 4.0 22 37
- 1.538528 3 4 tcp 1040 ------- 0 0.0 4.0 22 37
r 1.543552 3 4 tcp 1040 ------- 0 0.0 4.0 21 36
+ 1.543552 4 3 ack 40 ------- 0 4.0 0.0 21 52
- 1.543552 4 3 ack 40 ------- 0 4.0 0.0 21 52
r 1.546976 4 3 ack 40 ------- 0 4.0 0.0 20 51
+ 1.546976 3 2 ack 40 ------- 0 4.0 0.0 20 51
- 1.546976 3 2 ack 40 ------- 0 4.0 0.0 20 51
r 1.555168 2 3 tcp 1040 ------- 0 0.0 4.0 24 39
+ 1.555168 3 4 tcp 1040 ------- 0 0.0 4.0 24 39
- 1.555168 3 4 tcp 1040 ------- 0 0.0 4.0 24 39
r 1.560192 3 4 tcp 1040 ------- 0 0.0 4.0 22 37
+ 1.560192 4 3 ack 40 ------- 0 4.0 0.0 22 53
- 1.560192 4 3 ack 40 ------- 0 4.0 0.0 22 53
r 1.563616 4 3 ack 40 ------- 0 4.0 0.0 21 52
+ 1.563616 3 2 ack 40 ------- 0 4.0 0.0 21 52
- 1.563616 3 2 ack 40 ------- 0 4.0 0.0 21 52
r 1.564416 3 2 ack 40 ------- 0 4.0 0.0 15 46
+ 1.564416 2 0 ack 40 ------- 0 4.0 0.0 15 46
- 1.564416 2 0 ack 40 ------- 0 4.0 0.0 15 46
r 1.571808 2 3 tcp 1040 ------- 0 0.0 4.0 26 41
+ 1.571808 3 4 tcp 1040 ------- 0 0.0 4.0 26 41
- 1.571808 3 4 tcp 1040 ------- 0 0.0 4.0 26 41
r 1.576832 3 4 tcp 1040 ------- 0 0.0 4.0 24 39
+ 1.576832 4 3 ack 40 ------- 0 4.0 0.0 22 54
- 1.576832 4 3 ack 40 ------- 0 4.0 0.0 22 54
r 1.580256 4 3 ack 40 ------- 0 4.0 0.0 22 53
+ 1.580256 3 2 ack 40 ------- 0 4.0 0.0 22 53
- 1.580256 3 2 ack 40 ------- 0 4.0 0.0 22 53
r 1.581056 3 2 ack 40 ------- 0 4.0 0.0 16 47
+ 1.581056 2 0 ack 40 ------- 0 4.0 0.0 16 47
- 1.581056 2 0 ack 40 ------- 0 4.0 0.0 16 47
r 1.58448 2 0 ack 40 ------- 0 4.0 0.0 15 46
+ 1.58448 0 2 tcp 1040 ------- 0 0.0 4.0 31 55
- 1.58448 0 2 tcp 1040 ------- 0 0.0 4.0 31 55
+ 1.58448 0 2 tcp 1040 ------- 0 0.0 4.0 32 56
- 1.586144 0 2 tcp 1040 ------- 0 0.0 4.0 32 56
r 1.588448 2 3 tcp 1040 ------- 0 0.0 4.0 28 43
+ 1.588448 3 4 tcp 1040 ------- 0 0.0 4.0 28 43
- 1.588448 3 4 tcp 1040 ------- 0 0.0 4.0 28 43
r 1.593472 3 4 tcp 1040 ------- 0 0.0 4.0 26 41
+ 1.593472 4 3 ack 40 ------- 0 4.0 0.0 22 57
- 1.593472 4 3 ack 40 ------- 0 4.0 0.0 22 57
r 1.596896 4 3 ack 40 ------- 0 4.0 0.0 22 54
+ 1.596896 3 2 ack 40 ------- 0 4.0 0.0 22 54
- 1.596896 3 2 ack 40 ------- 0 4.0 0.0 22 54
r 1.597696 3 2 ack 40 ------- 0 4.0 0.0 17 48
+ 1.597696 2 0 ack 40 ------- 0 4.0 0.0 17 48
- 1.597696 2 0 ack 40 ------- 0 4.0 0.0 17 48
r 1.60112 2 0 ack 40 ------- 0 4.0 0.0 16 47
+ 1.60112 0 2 tcp 1040 ------- 0 0.0 4.0 33 58
- 1.60112 0 2 tcp 1040 ------- 0 0.0 4.0 33 58
+ 1.60112 0 2 tcp 1040 ------- 0 0.0 4.0 34 59
- 1.602784 0 2 tcp 1040 ------- 0 0.0 4.0 34 59
r 1.605088 2 3 tcp 1040 ------- 0 0.0 4.0 30 45
+ 1.605088 3 4 tcp 1040 ------- 0 0.0 4.0 30 45
- 1.605088 3 4 tcp 1040 ------- 0 0.0 4.0 30 45
r 1.606144 0 2 tcp 1040 ------- 0 0.0 4.0 31 55
+ 1.606144 2 3 tcp 1040 ------- 0 0.0 4.0 31 55
- 1.606144 2 3 tcp 1040 ------- 0 0.0 4.0 31 55
r 1.607808 0 2 tcp 1040 ------- 0 0.0 4.0 32 56
+ 1.607808 2 3 tcp 1040 ------- 0 0.0 4.0 32 56
r 1.610112 3 4 tcp 1040 ------- 0 0.0 4.0 28 43
+ 1.610112 4 3 ack 40 ------- 0 4.0 0.0 22 60
- 1.610112 4 3 ack 40 ------- 0 4.0 0.0 22 60
r 1.613536 4 3 ack 40 ------- 0 4.0 0.0 22 57
+ 1.613536 3 2 ack 40 ------- 0 4.0 0.0 22 57
- 1.613536 3 2 ack 40 ------- 0 4.0 0.0 22 57
r 1.614336 3 2 ack 40 ------- 0 4.0 0.0 18 49
+ 1.614336 2 0 ack 40 ------- 0 4.0 0.0 18 49
- 1.614336 2 0 ack 40 ------- 0 4.0 0.0 18 49
r 1.61776 2 0 ack 40 ------- 0 4.0 0.0 17 48
+ 1.61776 0 2 tcp 1040 ------- 0 0.0 4.0 35 61
- 1.61776 0 2 tcp 1040 ------- 0 0.0 4.0 35 61
+ 1.61776 0 2 tcp 1040 ------- 0 0.0 4.0 36 62
- 1.619424 0 2 tcp 1040 ------- 0 0.0 4.0 36 62
r 1.622784 0 2 tcp 1040 ------- 0 0.0 4.0 33 58
+ 1.622784 2 3 tcp 1040 ------- 0 0.0 4.0 33 58
- 1.622784 2 3 tcp 1040 ------- 0 0.0 4.0 32 56
r 1.624448 0 2 tcp 1040 ------- 0 0.0 4.0 34 59
+ 1.624448 2 3 tcp 1040 ------- 0 0.0 4.0 34 59
r 1.626752 3 4 tcp 1040 ------- 0 0.0 4.0 30 45
+ 1.626752 4 3 ack 40 ------- 0 4.0 0.0 22 63
- 1.626752 4 3 ack 40 ------- 0 4.0 0.0 22 63
r 1.630176 4 3 ack 40 ------- 0 4.0 0.0 22 60
+ 1.630176 3 2 ack 40 ------- 0 4.0 0.0 22 60
- 1.630176 3 2 ack 40 ------- 0 4.0 0.0 22 60
r 1.630976 3 2 ack 40 ------- 0 4.0 0.0 19 50
+ 1.630976 2 0 ack 40 ------- 0 4.0 0.0 19 50
- 1.630976 2 0 ack 40 ------- 0 4.0 0.0 19 50
r 1.6344 2 0 ack 40 ------- 0 4.0 0.0 18 49
+ 1.6344 0 2 tcp 1040 ------- 0 0.0 4.0 37 64
- 1.6344 0 2 tcp 1040 ------- 0 0.0 4.0 37 64
+ 1.6344 0 2 tcp 1040 ------- 0 0.0 4.0 38 65
- 1.636064 0 2 tcp 1040 ------- 0 0.0 4.0 38 65
r 1.639424 0 2 tcp 1040 ------- 0 0.0 4.0 35 61
+ 1.639424 2 3 tcp 1040 ------- 0 0.0 4.0 35 61
- 1.639424 2 3 tcp 1040 ------- 0 0.0 4.0 33 58
r 1.641088 0 2 tcp 1040 ------- 0 0.0 4.0 36 62
+ 1.641088 2 3 tcp 1040 ------- 0 0.0 4.0 36 62
r 1.646816 4 3 ack 40 ------- 0 4.0 0.0 22 63
+ 1.646816 3 2 ack 40 ------- 0 4.0 0.0 22 63
- 1.646816 3 2 ack 40 ------- 0 4.0 0.0 22 63
r 1.647616 3 2 ack 40 ------- 0 4.0 0.0 20 51
+ 1.647616 2 0 ack 40 ------- 0 4.0 0.0 20 51
- 1.647616 2 0 ack 40 ------- 0 4.0 0.0 20 51
r 1.65104 2 0 ack 40 ------- 0 4.0 0.0 19 50
+ 1.65104 0 2 tcp 1040 ------- 0 0.0 4.0 39 66
- 1.65104 0 2 tcp 1040 ------- 0 0.0 4.0 39 66
r 1.656064 0 2 tcp 1040 ------- 0 0.0 4.0 37 64
+ 1.656064 2 3 tcp 1040 ------- 0 0.0 4.0 37 64
- 1.656064 2 3 tcp 1040 ------- 0 0.0 4.0 34 59
r 1.657728 0 2 tcp 1040 ------- 0 0.0 4.0 38 65
+ 1.657728 2 3 tcp 1040 ------- 0 0.0 4.0 38 65
r 1.664256 3 2 ack 40 ------- 0 4.0 0.0 21 52
+ 1.664256 2 0 ack 40 ------- 0 4.0 0.0 21 52
- 1.664256 2 0 ack 40 ------- 0 4.0 0.0 21 52
r 1.66768 2 0 ack 40 ------- 0 4.0 0.0 20 51
+ 1.66768 0 2 tcp 1040 ------- 0 0.0 4.0 40 67
- 1.66768 0 2 tcp 1040 ------- 0 0.0 4.0 40 67
r 1.672704 0 2 tcp 1040 ------- 0 0.0 4.0 39 66
+ 1.672704 2 3 tcp 1040 ------- 0 0.0 4.0 39 66
d 1.672704 2 3 tcp 1040 ------- 0 0.0 4.0 39 66
- 1.672704 2 3 tcp 1040 ------- 0 0.0 4.0 35 61
r 1.680896 3 2 ack 40 ------- 0 4.0 0.0 22 53
+ 1.680896 2 0 ack 40 ------- 0 4.0 0.0 22 53
- 1.680896 2 0 ack 40 ------- 0 4.0 0.0 22 53
r 1.68432 2 0 ack 40 ------- 0 4.0 0.0 21 52
+ 1.68432 0 2 tcp 1040 ------- 0 0.0 4.0 41 68
- 1.68432 0 2 tcp 1040 ------- 0 0.0 4.0 41 68
r 1.689344 0 2 tcp 1040 ------- 0 0.0 4.0 40 67
+ 1.689344 2 3 tcp 1040 ------- 0 0.0 4.0 40 67
- 1.689344 2 3 tcp 1040 ------- 0 0.0 4.0 36 62
r 1.697536 3 2 ack 40 ------- 0 4.0 0.0 22 54
+ 1.697536 2 0 ack 40 ------- 0 4.0 0.0 22 54
- 1.697536 2 0 ack 40 ------- 0 4.0 0.0 22 54
r 1.70096 2 0 ack 40 ------- 0 4.0 0.0 22 53
+ 1.70096 0 2 tcp 1040 ------- 0 0.0 4.0 42 69
- 1.70096 0 2 tcp 1040 ------- 0 0.0 4.0 42 69
r 1.705984 0 2 tcp 1040 ------- 0 0.0 4.0 41 68
+ 1.705984 2 3 tcp 1040 ------- 0 0.0 4.0 41 68
- 1.705984 2 3 tcp 1040 ------- 0 0.0 4.0 37 64
r 1.714176 3 2 ack 40 ------- 0 4.0 0.0 22 57
+ 1.714176 2 0 ack 40 ------- 0 4.0 0.0 22 57
- 1.714176 2 0 ack 40 ------- 0 4.0 0.0 22 57
r 1.7176 2 0 ack 40 ------- 0 4.0 0.0 22 54
r 1.722624 0 2 tcp 1040 ------- 0 0.0 4.0 42 69
+ 1.722624 2 3 tcp 1040 ------- 0 0.0 4.0 42 69
- 1.722624 2 3 tcp 1040 ------- 0 0.0 4.0 38 65
r 1.722784 2 3 tcp 1040 ------- 0 0.0 4.0 31 55
+ 1.722784 3 4 tcp 1040 ------- 0 0.0 4.0 31 55
- 1.722784 3 4 tcp 1040 ------- 0 0.0 4.0 31 55
r 1.730816 3 2 ack 40 ------- 0 4.0 0.0 22 60
+ 1.730816 2 0 ack 40 ------- 0 4.0 0.0 22 60
- 1.730816 2 0 ack 40 ------- 0 4.0 0.0 22 60
r 1.73424 2 0 ack 40 ------- 0 4.0 0.0 22 57
- 1.739264 2 3 tcp 1040 ------- 0 0.0 4.0 40 67
r 1.739424 2 3 tcp 1040 ------- 0 0.0 4.0 32 56
+ 1.739424 3 4 tcp 1040 ------- 0 0.0 4.0 32 56
- 1.739424 3 4 tcp 1040 ------- 0 0.0 4.0 32 56
r 1.744448 3 4 tcp 1040 ------- 0 0.0 4.0 31 55
+ 1.744448 4 3 ack 40 ------- 0 4.0 0.0 22 70
- 1.744448 4 3 ack 40 ------- 0 4.0 0.0 22 70
r 1.747456 3 2 ack 40 ------- 0 4.0 0.0 22 63
+ 1.747456 2 0 ack 40 ------- 0 4.0 0.0 22 63
- 1.747456 2 0 ack 40 ------- 0 4.0 0.0 22 63
r 1.75088 2 0 ack 40 ------- 0 4.0 0.0 22 60
- 1.755904 2 3 tcp 1040 ------- 0 0.0 4.0 41 68
r 1.756064 2 3 tcp 1040 ------- 0 0.0 4.0 33 58
+ 1.756064 3 4 tcp 1040 ------- 0 0.0 4.0 33 58
- 1.756064 3 4 tcp 1040 ------- 0 0.0 4.0 33 58
r 1.761088 3 4 tcp 1040 ------- 0 0.0 4.0 32 56
+ 1.761088 4 3 ack 40 ------- 0 4.0 0.0 22 71
- 1.761088 4 3 ack 40 ------- 0 4.0 0.0 22 71
r 1.764512 4 3 ack 40 ------- 0 4.0 0.0 22 70
+ 1.764512 3 2 ack 40 ------- 0 4.0 0.0 22 70
- 1.764512 3 2 ack 40 ------- 0 4.0 0.0 22 70
r 1.76752 2 0 ack 40 ------- 0 4.0 0.0 22 63
- 1.772544 2 3 tcp 1040 ------- 0 0.0 4.0 42 69
r 1.772704 2 3 tcp 1040 ------- 0 0.0 4.0 34 59
+ 1.772704 3 4 tcp 1040 ------- 0 0.0 4.0 34 59
- 1.772704 3 4 tcp 1040 ------- 0 0.0 4.0 34 59
r 1.777728 3 4 tcp 1040 ------- 0 0.0 4.0 33 58
+ 1.777728 4 3 ack 40 ------- 0 4.0 0.0 22 72
- 1.777728 4 3 ack 40 ------- 0 4.0 0.0 22 72
r 1.781152 4 3 ack 40 ------- 0 4.0 0.0 22 71
+ 1.781152 3 2 ack 40 ------- 0 4.0 0.0 22 71
- 1.781152 3 2 ack 40 ------- 0 4.0 0.0 22 71
r 1.789344 2 3 tcp 1040 ------- 0 0.0 4.0 35 61
+ 1.789344 3 4 tcp 1040 ------- 0 0.0 4.0 35 61
- 1.789344 3 4 tcp 1040 ------- 0 0.0 4.0 35 61
r 1.794368 3 4 tcp 1040 ------- 0 0.0 4.0 34 59
+ 1.794368 4 3 ack 40 ------- 0 4.0 0.0 22 73
- 1.794368 4 3 ack 40 ------- 0 4.0 0.0 22 73
r 1.797792 4 3 ack 40 ------- 0 4.0 0.0 22 72
+ 1.797792 3 2 ack 40 ------- 0 4.0 0.0 22 72
- 1.797792 3 2 ack 40 ------- 0 4.0 0.0 22 72
r 1.805984 2 3 tcp 1040 ------- 0 0.0 4.0 36 62
+ 1.805984 3 4 tcp 1040 ------- 0 0.0 4.0 36 62
- 1.805984 3 4 tcp 1040 ------- 0 0.0 4.0 36 62
r 1.811008 3 4 tcp 1040 ------- 0 0.0 4.0 35 61
+ 1.811008 4 3 ack 40 ------- 0 4.0 0.0 22 74
- 1.811008 4 3 ack 40 ------- 0 4.0 0.0 22 74
r 1.814432 4 3 ack 40 ------- 0 4.0 0.0 22 73
+ 1.814432 3 2 ack 40 ------- 0 4.0 0.0 22 73
- 1.814432 3 2 ack 40 ------- 0 4.0 0.0 22 73
r 1.822624 2 3 tcp 1040 ------- 0 0.0 4.0 37 64
+ 1.822624 3 4 tcp 1040 ------- 0 0.0 4.0 37 64
- 1.822624 3 4 tcp 1040 ------- 0 0.0 4.0 37 64
r 1.827648 3 4 tcp 1040 ------- 0 0.0 4.0 36 62
+ 1.827648 4 3 ack 40 ------- 0 4.0 0.0 22 75
- 1.827648 4 3 ack 40 ------- 0 4.0 0.0 22 75
r 1.831072 4 3 ack 40 ------- 0 4.0 0.0 22 74
+ 1.831072 3 2 ack 40 ------- 0 4.0 0.0 22 74
- 1.831072 3 2 ack 40 ------- 0 4.0 0.0 22 74
r 1.839264 2 3 tcp 1040 ------- 0 0.0 4.0 38 65
+ 1.839264 3 4 tcp 1040 ------- 0 0.0 4.0 38 65
- 1.839264 3 4 tcp 1040 ------- 0 0.0 4.0 38 65
r 1.844288 3 4 tcp 1040 ------- 0 0.0 4.0 37 64
+ 1.844288 4 3 ack 40 ------- 0 4.0 0.0 22 76
- 1.844288 4 3 ack 40 ------- 0 4.0 0.0 22 76
r 1.847712 4 3 ack 40 ------- 0 4.0 0.0 22 75
+ 1.847712 3 2 ack 40 ------- 0 4.0 0.0 22 75
- 1.847712 3 2 ack 40 ------- 0 4.0 0.0 22 75
r 1.855904 2 3 tcp 1040 ------- 0 0.0 4.0 40 67
+ 1.855904 3 4 tcp 1040 ------- 0 0.0 4.0 40 67
- 1.855904 3 4 tcp 1040 ------- 0 0.0 4.0 40 67
r 1.860928 3 4 tcp 1040 ------- 0 0.0 4.0 38 65
+ 1.860928 4 3 ack 40 ------- 0 4.0 0.0 22 77
- 1.860928 4 3 ack 40 ------- 0 4.0 0.0 22 77
r 1.864352 4 3 ack 40 ------- 0 4.0 0.0 22 76
+ 1.864352 3 2 ack 40 ------- 0 4.0 0.0 22 76
- 1.864352 3 2 ack 40 ------- 0 4.0 0.0 22 76
r 1.865152 3 2 ack 40 ------- 0 4.0 0.0 22 70
+ 1.865152 2 0 ack 40 ------- 0 4.0 0.0 22 70
- 1.865152 2 0 ack 40 ------- 0 4.0 0.0 22 70
r 1.872544 2 3 tcp 1040 ------- 0 0.0 4.0 41 68
+ 1.872544 3 4 tcp 1040 ------- 0 0.0 4.0 41 68
- 1.872544 3 4 tcp 1040 ------- 0 0.0 4.0 41 68
r 1.877568 3 4 tcp 1040 ------- 0 0.0 4.0 40 67