+ 0.1 0 2 tcp 40 ------- 0 0.0 4.0 0 0
- 0.1 0 2 tcp 40 ------- 0 0.0 4.0 0 0
+ 0.1 0 2 tcp 1040 ------- 0 0.0 4.0 1 1
- 0.100064 0 2 tcp 1040 ------- 0 0.0 4.0 1 1
r 0.120064 0 2 tcp 40 ------- 0 0.0 4.0 0 0
+ 0.120064 2 3 tcp 40 ------- 0 0.0 4.0 0 0
- 0.120064 2 3 tcp 40 ------- 0 0.0 4.0 0 0
r 0.121728 0 2 tcp 1040 ------- 0 0.0 4.0 1 1
+ 0.121728 2 3 tcp 1040 ------- 0 0.0 4.0 1 1
- 0.121728 2 3 tcp 1040 ------- 0 0.0 4.0 1 1
r 0.220704 2 3 tcp 40 ------- 0 0.0 4.0 0 0
+ 0.220704 3 4 tcp 40 ------- 0 0.0 4.0 0 0
- 0.220704 3 4 tcp 40 ------- 0 0.0 4.0 0 0
r 0.238368 2 3 tcp 1040 ------- 0 0.0 4.0 1 1
+ 0.238368 3 4 tcp 1040 ------- 0 0.0 4.0 1 1
- 0.238368 3 4 tcp 1040 ------- 0 0.0 4.0 1 1
r 0.240768 3 4 tcp 40 ------- 0 0.0 4.0 0 0
+ 0.240768 4 3 ack 40 ------- 0 4.0 0.0 0 2
- 0.240768 4 3 ack 40 ------- 0 4.0 0.0 0 2
r 0.260032 3 4 tcp 1040 ------- 0 0.0 4.0 1 1
+ 0.260032 4 3 ack 40 ------- 0 4.0 0.0 1 3
- 0.260032 4 3 ack 40 ------- 0 4.0 0.0 1 3
r 0.260832 4 3 ack 40 ------- 0 4.0 0.0 0 2
+ 0.260832 3 2 ack 40 ------- 0 4.0 0.0 0 2
- 0.260832 3 2 ack 40 ------- 0 4.0 0.0 0 2
r 0.280096 4 3 ack 40 ------- 0 4.0 0.0 1 3
+ 0.280096 3 2 ack 40 ------- 0 4.0 0.0 1 3
- 0.280096 3 2 ack 40 ------- 0 4.0 0.0 1 3
r 0.361472 3 2 ack 40 ------- 0 4.0 0.0 0 2
+ 0.361472 2 0 ack 40 ------- 0 4.0 0.0 0 2
- 0.361472 2 0 ack 40 ------- 0 4.0 0.0 0 2
r 0.380736 3 2 ack 40 ------- 0 4.0 0.0 1 3
+ 0.380736 2 0 ack 40 ------- 0 4.0 0.0 1 3
- 0.380736 2 0 ack 40 ------- 0 4.0 0.0 1 3
r 0.381536 2 0 ack 40 ------- 0 4.0 0.0 0 2
+ 0.381536 0 2 tcp 1040 ------- 0 0.0 4.0 2 4
- 0.381536 0 2 tcp 1040 ------- 0 0.0 4.0 2 4
+ 0.381536 0 2 tcp 1040 ------- 0 0.0 4.0 3 5
- 0.3832 0 2 tcp 1040 ------- 0 0.0 4.0 3 5
r 0.4008 2 0 ack 40 ------- 0 4.0 0.0 1 3
+ 0.4008 0 2 tcp 1040 ------- 0 0.0 4.0 4 6
- 0.4008 0 2 tcp 1040 ------- 0 0.0 4.0 4 6
+ 0.4008 0 2 tcp 1040 ------- 0 0.0 4.0 5 7
- 0.402464 0 2 tcp 1040 ------- 0 0.0 4.0 5 7
r 0.4032 0 2 tcp 1040 ------- 0 0.0 4.0 2 4
+ 0.4032 2 3 tcp 1040 ------- 0 0.0 4.0 2 4
- 0.4032 2 3 tcp 1040 ------- 0 0.0 4.0 2 4
r 0.404864 0 2 tcp 1040 ------- 0 0.0 4.0 3 5
+ 0.404864 2 3 tcp 1040 ------- 0 0.0 4.0 3 5
- 0.41984 2 3 tcp 1040 ------- 0 0.0 4.0 3 5
r 0.422464 0 2 tcp 1040 ------- 0 0.0 4.0 4 6
+ 0.422464 2 3 tcp 1040 ------- 0 0.0 4.0 4 6
r 0.424128 0 2 tcp 1040 ------- 0 0.0 4.0 5 7
+ 0.424128 2 3 tcp 1040 ------- 0 0.0 4.0 5 7
- 0.43648 2 3 tcp 1040 ------- 0 0.0 4.0 4 6
- 0.45312 2 3 tcp 1040 ------- 0 0.0 4.0 5 7
r 0.51984 2 3 tcp 1040 ------- 0 0.0 4.0 2 4
+ 0.51984 3 4 tcp 1040 ------- 0 0.0 4.0 2 4
- 0.51984 3 4 tcp 1040 ------- 0 0.0 4.0 2 4
r 0.53648 2 3 tcp 1040 ------- 0 0.0 4.0 3 5
+ 0.53648 3 4 tcp 1040 ------- 0 0.0 4.0 3 5
- 0.53648 3 4 tcp 1040 ------- 0 0.0 4.0 3 5
r 0.541504 3 4 tcp 1040 ------- 0 0.0 4.0 2 4
+ 0.541504 4 3 ack 40 ------- 0 4.0 0.0 2 8
- 0.541504 4 3 ack 40 ------- 0 4.0 0.0 2 8
r 0.55312 2 3 tcp 1040 ------- 0 0.0 4.0 4 6
+ 0.55312 3 4 tcp 1040 ------- 0 0.0 4.0 4 6
- 0.55312 3 4 tcp 1040 ------- 0 0.0 4.0 4 6
r 0.558144 3 4 tcp 1040 ------- 0 0.0 4.0 3 5
+ 0.558144 4 3 ack 40 ------- 0 4.0 0.0 3 9
- 0.558144 4 3 ack 40 ------- 0 4.0 0.0 3 9
r 0.561568 4 3 ack 40 ------- 0 4.0 0.0 2 8
+ 0.561568 3 2 ack 40 ------- 0 4.0 0.0 2 8
- 0.561568 3 2 ack 40 ------- 0 4.0 0.0 2 8
r 0.56976 2 3 tcp 1040 ------- 0 0.0 4.0 5 7
+ 0.56976 3 4 tcp 1040 ------- 0 0.0 4.0 5 7
- 0.56976 3 4 tcp 1040 ------- 0 0.0 4.0 5 7
r 0.574784 3 4 tcp 1040 ------- 0 0.0 4.0 4 6
+ 0.574784 4 3 ack 40 ------- 0 4.0 0.0 4 10
- 0.574784 4 3 ack 40 ------- 0 4.0 0.0 4 10
r 0.578208 4 3 ack 40 ------- 0 4.0 0.0 3 9
+ 0.578208 3 2 ack 40 ------- 0 4.0 0.0 3 9
- 0.578208 3 2 ack 40 ------- 0 4.0 0.0 3 9
r 0.591424 3 4 tcp 1040 ------- 0 0.0 4.0 5 7
+ 0.591424 4 3 ack 40 ------- 0 4.0 0.0 5 11
- 0.591424 4 3 ack 40 ------- 0 4.0 0.0 5 11
r 0.594848 4 3 ack 40 ------- 0 4.0 0.0 4 10
+ 0.594848 3 2 ack 40 ------- 0 4.0 0.0 4 10
- 0.594848 3 2 ack 40 ------- 0 4.0 0.0 4 10
r 0.611488 4 3 ack 40 ------- 0 4.0 0.0 5 11
+ 0.611488 3 2 ack 40 ------- 0 4.0 0.0 5 11
- 0.611488 3 2 ack 40 ------- 0 4.0 0.0 5 11
r 0.662208 3 2 ack 40 ------- 0 4.0 0.0 2 8
+ 0.662208 2 0 ack 40 ------- 0 4.0 0.0 2 8
- 0.662208 2 0 ack 40 ------- 0 4.0 0.0 2 8
r 0.678848 3 2 ack 40 ------- 0 4.0 0.0 3 9
+ 0.678848 2 0 ack 40 ------- 0 4.0 0.0 3 9
- 0.678848 2 0 ack 40 ------- 0 4.0 0.0 3 9
r 0.682272 2 0 ack 40 ------- 0 4.0 0.0 2 8
+ 0.682272 0 2 tcp 1040 ------- 0 0.0 4.0 6 12
- 0.682272 0 2 tcp 1040 ------- 0 0.0 4.0 6 12
+ 0.682272 0 2 tcp 1040 ------- 0 0.0 4.0 7 13
- 0.683936 0 2 tcp 1040 ------- 0 0.0 4.0 7 13
r 0.695488 3 2 ack 40 ------- 0 4.0 0.0 4 10
+ 0.695488 2 0 ack 40 ------- 0 4.0 0.0 4 10
- 0.695488 2 0 ack 40 ------- 0 4.0 0.0 4 10
r 0.698912 2 0 ack 40 ------- 0 4.0 0.0 3 9
+ 0.698912 0 2 tcp 1040 ------- 0 0.0 4.0 8 14
- 0.698912 0 2 tcp 1040 ------- 0 0.0 4.0 8 14
+ 0.698912 0 2 tcp 1040 ------- 0 0.0 4.0 9 15
- 0.700576 0 2 tcp 1040 ------- 0 0.0 4.0 9 15
r 0.703936 0 2 tcp 1040 ------- 0 0.0 4.0 6 12
+ 0.703936 2 3 tcp 1040 ------- 0 0.0 4.0 6 12
- 0.703936 2 3 tcp 1040 ------- 0 0.0 4.0 6 12
r 0.7056 0 2 tcp 1040 ------- 0 0.0 4.0 7 13
+ 0.7056 2 3 tcp 1040 ------- 0 0.0 4.0 7 13
r 0.712128 3 2 ack 40 ------- 0 4.0 0.0 5 11
+ 0.712128 2 0 ack 40 ------- 0 4.0 0.0 5 11
- 0.712128 2 0 ack 40 ------- 0 4.0 0.0 5 11
r 0.715552 2 0 ack 40 ------- 0 4.0 0.0 4 10
+ 0.715552 0 2 tcp 1040 ------- 0 0.0 4.0 10 16
- 0.715552 0 2 tcp 1040 ------- 0 0.0 4.0 10 16
+ 0.715552 0 2 tcp 1040 ------- 0 0.0 4.0 11 17
- 0.717216 0 2 tcp 1040 ------- 0 0.0 4.0 11 17
r 0.720576 0 2 tcp 1040 ------- 0 0.0 4.0 8 14
+ 0.720576 2 3 tcp 1040 ------- 0 0.0 4.0 8 14
- 0.720576 2 3 tcp 1040 ------- 0 0.0 4.0 7 13
r 0.72224 0 2 tcp 1040 ------- 0 0.0 4.0 9 15
+ 0.72224 2 3 tcp 1040 ------- 0 0.0 4.0 9 15
r 0.732192 2 0 ack 40 ------- 0 4.0 0.0 5 11
+ 0.732192 0 2 tcp 1040 ------- 0 0.0 4.0 12 18
- 0.732192 0 2 tcp 1040 ------- 0 0.0 4.0 12 18
+ 0.732192 0 2 tcp 1040 ------- 0 0.0 4.0 13 19
- 0.733856 0 2 tcp 1040 ------- 0 0.0 4.0 13 19
r 0.737216 0 2 tcp 1040 ------- 0 0.0 4.0 10 16
+ 0.737216 2 3 tcp 1040 ------- 0 0.0 4.0 10 16
- 0.737216 2 3 tcp 1040 ------- 0 0.0 4.0 8 14
r 0.73888 0 2 tcp 1040 ------- 0 0.0 4.0 11 17
+ 0.73888 2 3 tcp 1040 ------- 0 0.0 4.0 11 17
r 0.753856 0 2 tcp 1040 ------- 0 0.0 4.0 12 18
+ 0.753856 2 3 tcp 1040 ------- 0 0.0 4.0 12 18
- 0.753856 2 3 tcp 1040 ------- 0 0.0 4.0 9 15
r 0.75552 0 2 tcp 1040 ------- 0 0.0 4.0 13 19
+ 0.75552 2 3 tcp 1040 ------- 0 0.0 4.0 13 19
- 0.770496 2 3 tcp 1040 ------- 0 0.0 4.0 10 16
- 0.787136 2 3 tcp 1040 ------- 0 0.0 4.0 11 17
- 0.803776 2 3 tcp 1040 ------- 0 0.0 4.0 12 18
- 0.820416 2 3 tcp 1040 ------- 0 0.0 4.0 13 19
r 0.820576 2 3 tcp 1040 ------- 0 0.0 4.0 6 12
+ 0.820576 3 4 tcp 1040 ------- 0 0.0 4.0 6 12
- 0.820576 3 4 tcp 1040 ------- 0 0.0 4.0 6 12
r 0.837216 2 3 tcp 1040 ------- 0 0.0 4.0 7 13
+ 0.837216 3 4 tcp 1040 ------- 0 0.0 4.0 7 13
- 0.837216 3 4 tcp 1040 ------- 0 0.0 4.0 7 13
r 0.84224 3 4 tcp 1040 ------- 0 0.0 4.0 6 12
+ 0.84224 4 3 ack 40 ------- 0 4.0 0.0 6 20
- 0.84224 4 3 ack 40 ------- 0 4.0 0.0 6 20
r 0.853856 2 3 tcp 1040 ------- 0 0.0 4.0 8 14
+ 0.853856 3 4 tcp 1040 ------- 0 0.0 4.0 8 14
- 0.853856 3 4 tcp 1040 ------- 0 0.0 4.0 8 14
r 0.85888 3 4 tcp 1040 ------- 0 0.0 4.0 7 13
+ 0.85888 4 3 ack 40 ------- 0 4.0 0.0 7 21
- 0.85888 4 3 ack 40 ------- 0 4.0 0.0 7 21
r 0.862304 4 3 ack 40 ------- 0 4.0 0.0 6 20
+ 0.862304 3 2 ack 40 ------- 0 4.0 0.0 6 20
- 0.862304 3 2 ack 40 ------- 0 4.0 0.0 6 20
r 0.870496 2 3 tcp 1040 ------- 0 0.0 4.0 9 15
+ 0.870496 3 4 tcp 1040 ------- 0 0.0 4.0 9 15
- 0.870496 3 4 tcp 1040 ------- 0 0.0 4.0 9 15
r 0.87552 3 4 tcp 1040 ------- 0 0.0 4.0 8 14
+ 0.87552 4 3 ack 40 ------- 0 4.0 0.0 8 22
- 0.87552 4 3 ack 40 ------- 0 4.0 0.0 8 22
r 0.878944 4 3 ack 40 ------- 0 4.0 0.0 7 21
+ 0.878944 3 2 ack 40 ------- 0 4.0 0.0 7 21
- 0.878944 3 2 ack 40 ------- 0 4.0 0.0 7 21
r 0.887136 2 3 tcp 1040 ------- 0 0.0 4.0 10 16
+ 0.887136 3 4 tcp 1040 ------- 0 0.0 4.0 10 16
- 0.887136 3 4 tcp 1040 ------- 0 0.0 4.0 10 16
r 0.89216 3 4 tcp 1040 ------- 0 0.0 4.0 9 15
+ 0.89216 4 3 ack 40 ------- 0 4.0 0.0 9 23
- 0.89216 4 3 ack 40 ------- 0 4.0 0.0 9 23
r 0.895584 4 3 ack 40 ------- 0 4.0 0.0 8 22
+ 0.895584 3 2 ack 40 ------- 0 4.0 0.0 8 22
- 0.895584 3 2 ack 40 ------- 0 4.0 0.0 8 22
r 0.903776 2 3 tcp 1040 ------- 0 0.0 4.0 11 17
+ 0.903776 3 4 tcp 1040 ------- 0 0.0 4.0 11 17
- 0.903776 3 4 tcp 1040 ------- 0 0.0 4.0 11 17
r 0.9088 3 4 tcp 1040 ------- 0 0.0 4.0 10 16
+ 0.9088 4 3 ack 40 ------- 0 4.0 0.0 10 24
- 0.9088 4 3 ack 40 ------- 0 4.0 0.0 10 24
r 0.912224 4 3 ack 40 ------- 0 4.0 0.0 9 23
+ 0.912224 3 2 ack 40 ------- 0 4.0 0.0 9 23
- 0.912224 3 2 ack 40 ------- 0 4.0 0.0 9 23
r 0.920416 2 3 tcp 1040 ------- 0 0.0 4.0 12 18
+ 0.920416 3 4 tcp 1040 ------- 0 0.0 4.0 12 18
- 0.920416 3 4 tcp 1040 ------- 0 0.0 4.0 12 18
r 0.92544 3 4 tcp 1040 ------- 0 0.0 4.0 11 17
+ 0.92544 4 3 ack 40 ------- 0 4.0 0.0 11 25
- 0.92544 4 3 ack 40 ------- 0 4.0 0.0 11 25
r 0.928864 4 3 ack 40 ------- 0 4.0 0.0 10 24
+ 0.928864 3 2 ack 40 ------- 0 4.0 0.0 10 24
- 0.928864 3 2 ack 40 ------- 0 4.0 0.0 10 24
r 0.937056 2 3 tcp 1040 ------- 0 0.0 4.0 13 19
+ 0.937056 3 4 tcp 1040 ------- 0 0.0 4.0 13 19
- 0.937056 3 4 tcp 1040 ------- 0 0.0 4.0 13 19
r 0.94208 3 4 tcp 1040 ------- 0 0.0 4.0 12 18
+ 0.94208 4 3 ack 40 ------- 0 4.0 0.0 12 26
- 0.94208 4 3 ack 40 ------- 0 4.0 0.0 12 26
r 0.945504 4 3 ack 40 ------- 0 4.0 0.0 11 25
+ 0.945504 3 2 ack 40 ------- 0 4.0 0.0 11 25
- 0.945504 3 2 ack 40 ------- 0 4.0 0.0 11 25
r 0.95872 3 4 tcp 1040 ------- 0 0.0 4.0 13 19
+ 0.95872 4 3 ack 40 ------- 0 4.0 0.0 13 27
- 0.95872 4 3 ack 40 ------- 0 4.0 0.0 13 27
r 0.962144 4 3 ack 40 ------- 0 4.0 0.0 12 26
+ 0.962144 3 2 ack 40 ------- 0 4.0 0.0 12 26
- 0.962144 3 2 ack 40 ------- 0 4.0 0.0 12 26
r 0.962944 3 2 ack 40 ------- 0 4.0 0.0 6 20
+ 0.962944 2 0 ack 40 ------- 0 4.0 0.0 6 20
- 0.962944 2 0 ack 40 ------- 0 4.0 0.0 6 20
r 0.978784 4 3 ack 40 ------- 0 4.0 0.0 13 27
+ 0.978784 3 2 ack 40 ------- 0 4.0 0.0 13 27
- 0.978784 3 2 ack 40 ------- 0 4.0 0.0 13 27
r 0.979584 3 2 ack 40 ------- 0 4.0 0.0 7 21
+ 0.979584 2 0 ack 40 ------- 0 4.0 0.0 7 21
- 0.979584 2 0 ack 40 ------- 0 4.0 0.0 7 21
r 0.983008 2 0 ack 40 ------- 0 4.0 0.0 6 20
+ 0.983008 0 2 tcp 1040 ------- 0 0.0 4.0 14 28
- 0.983008 0 2 tcp 1040 ------- 0 0.0 4.0 14 28
+ 0.983008 0 2 tcp 1040 ------- 0 0.0 4.0 15 29
- 0.984672 0 2 tcp 1040 ------- 0 0.0 4.0 15 29
r 0.996224 3 2 ack 40 ------- 0 4.0 0.0 8 22
+ 0.996224 2 0 ack 40 ------- 0 4.0 0.0 8 22
- 0.996224 2 0 ack 40 ------- 0 4.0 0.0 8 22
r 0.999648 2 0 ack 40 ------- 0 4.0 0.0 7 21
+ 0.999648 0 2 tcp 1040 ------- 0 0.0 4.0 16 30
- 0.999648 0 2 tcp 1040 ------- 0 0.0 4.0 16 30
+ 0.999648 0 2 tcp 1040 ------- 0 0.0 4.0 17 31
- 1.001312 0 2 tcp 1040 ------- 0 0.0 4.0 17 31
r 1.004672 0 2 tcp 1040 ------- 0 0.0 4.0 14 28
+ 1.004672 2 3 tcp 1040 ------- 0 0.0 4.0 14 28
- 1.004672 2 3 tcp 1040 ------- 0 0.0 4.0 14 28
r 1.006336 0 2 tcp 1040 ------- 0 0.0 4.0 15 29
+ 1.006336 2 3 tcp 1040 ------- 0 0.0 4.0 15 29
r 1.012864 3 2 ack 40 ------- 0 4.0 0.0 9 23
+ 1.012864 2 0 ack 40 ------- 0 4.0 0.0 9 23
- 1.012864 2 0 ack 40 ------- 0 4.0 0.0 9 23
r 1.016288 2 0 ack 40 ------- 0 4.0 0.0 8 22
+ 1.016288 0 2 tcp 1040 ------- 0 0.0 4.0 18 32
- 1.016288 0 2 tcp 1040 ------- 0 0.0 4.0 18 32
+ 1.016288 0 2 tcp 1040 ------- 0 0.0 4.0 19 33
- 1.017952 0 2 tcp 1040 ------- 0 0.0 4.0 19 33
r 1.021312 0 2 tcp 1040 ------- 0 0.0 4.0 16 30
+ 1.021312 2 3 tcp 1040 ------- 0 0.0 4.0 16 30
- 1.021312 2 3 tcp 1040 ------- 0 0.0 4.0 15 29
r 1.022976 0 2 tcp 1040 ------- 0 0.0 4.0 17 31
+ 1.022976 2 3 tcp 1040 ------- 0 0.0 4.0 17 31
r 1.029504 3 2 ack 40 ------- 0 4.0 0.0 10 24
+ 1.029504 2 0 ack 40 ------- 0 4.0 0.0 10 24
- 1.029504 2 0 ack 40 ------- 0 4.0 0.0 10 24
r 1.032928 2 0 ack 40 ------- 0 4.0 0.0 9 23
+ 1.032928 0 2 tcp 1040 ------- 0 0.0 4.0 20 34
- 1.032928 0 2 tcp 1040 ------- 0 0.0 4.0 20 34
+ 1.032928 0 2 tcp 1040 ------- 0 0.0 4.0 21 35
- 1.034592 0 2 tcp 1040 ------- 0 0.0 4.0 21 35
r 1.037952 0 2 tcp 1040 ------- 0 0.0 4.0 18 32
+ 1.037952 2 3 tcp 1040 ------- 0 0.0 4.0 18 32
- 1.037952 2 3 tcp 1040 ------- 0 0.0 4.0 16 30
r 1.039616 0 2 tcp 1040 ------- 0 0.0 4.0 19 33
+ 1.039616 2 3 tcp 1040 ------- 0 0.0 4.0 19 33
r 1.046144 3 2 ack 40 ------- 0 4.0 0.0 11 25
+ 1.046144 2 0 ack 40 ------- 0 4.0 0.0 11 25
- 1.046144 2 0 ack 40 ------- 0 4.0 0.0 11 25
r 1.049568 2 0 ack 40 ------- 0 4.0 0.0 10 24
+ 1.049568 0 2 tcp 1040 ------- 0 0.0 4.0 22 36
- 1.049568 0 2 tcp 1040 ------- 0 0.0 4.0 22 36
+ 1.049568 0 2 tcp 1040 ------- 0 0.0 4.0 23 37
- 1.051232 0 2 tcp 1040 ------- 0 0.0 4.0 23 37
r 1.054592 0 2 tcp 1040 ------- 0 0.0 4.0 20 34
+ 1.054592 2 3 tcp 1040 ------- 0 0.0 4.0 20 34
- 1.054592 2 3 tcp 1040 ------- 0 0.0 4.0 17 31
r 1.056256 0 2 tcp 1040 ------- 0 0.0 4.0 21 35
+ 1.056256 2 3 tcp 1040 ------- 0 0.0 4.0 21 35
r 1.062784 3 2 ack 40 ------- 0 4.0 0.0 12 26
+ 1.062784 2 0 ack 40 ------- 0 4.0 0.0 12 26
- 1.062784 2 0 ack 40 ------- 0 4.0 0.0 12 26
r 1.066208 2 0 ack 40 ------- 0 4.0 0.0 11 25
+ 1.066208 0 2 tcp 1040 ------- 0 0.0 4.0 24 38
- 1.066208 0 2 tcp 1040 ------- 0 0.0 4.0 24 38
+ 1.066208 0 2 tcp 1040 ------- 0 0.0 4.0 25 39
- 1.067872 0 2 tcp 1040 ------- 0 0.0 4.0 25 39
r 1.071232 0 2 tcp 1040 ------- 0 0.0 4.0 22 36
+ 1.071232 2 3 tcp 1040 ------- 0 0.0 4.0 22 36
d 1.071232 2 3 tcp 1040 ------- 0 0.0 4.0 22 36
- 1.071232 2 3 tcp 1040 ------- 0 0.0 4.0 18 32
r 1.072896 0 2 tcp 1040 ------- 0 0.0 4.0 23 37
+ 1.072896 2 3 tcp 1040 ------- 0 0.0 4.0 23 37
r 1.079424 3 2 ack 40 ------- 0 4.0 0.0 13 27
+ 1.079424 2 0 ack 40 ------- 0 4.0 0.0 13 27
- 1.079424 2 0 ack 40 ------- 0 4.0 0.0 13 27
r 1.082848 2 0 ack 40 ------- 0 4.0 0.0 12 26
+ 1.082848 0 2 tcp 1040 ------- 0 0.0 4.0 26 40
- 1.082848 0 2 tcp 1040 ------- 0 0.0 4.0 26 40
+ 1.082848 0 2 tcp 1040 ------- 0 0.0 4.0 27 41
- 1.084512 0 2 tcp 1040 ------- 0 0.0 4.0 27 41
r 1.087872 0 2 tcp 1040 ------- 0 0.0 4.0 24 38
+ 1.087872 2 3 tcp 1040 ------- 0 0.0 4.0 24 38
d 1.087872 2 3 tcp 1040 ------- 0 0.0 4.0 24 38
- 1.087872 2 3 tcp 1040 ------- 0 0.0 4.0 19 33
r 1.089536 0 2 tcp 1040 ------- 0 0.0 4.0 25 39
+ 1.089536 2 3 tcp 1040 ------- 0 0.0 4.0 25 39
r 1.099488 2 0 ack 40 ------- 0 4.0 0.0 13 27
+ 1.099488 0 2 tcp 1040 ------- 0 0.0 4.0 28 42
- 1.099488 0 2 tcp 1040 ------- 0 0.0 4.0 28 42
+ 1.099488 0 2 tcp 1040 ------- 0 0.0 4.0 29 43
- 1.101152 0 2 tcp 1040 ------- 0 0.0 4.0 29 43
r 1.104512 0 2 tcp 1040 ------- 0 0.0 4.0 26 40
+ 1.104512 2 3 tcp 1040 ------- 0 0.0 4.0 26 40
d 1.104512 2 3 tcp 1040 ------- 0 0.0 4.0 26 40
- 1.104512 2 3 tcp 1040 ------- 0 0.0 4.0 20 34
r 1.106176 0 2 tcp 1040 ------- 0 0.0 4.0 27 41
+ 1.106176 2 3 tcp 1040 ------- 0 0.0 4.0 27 41
r 1.121152 0 2 tcp 1040 ------- 0 0.0 4.0 28 42
+ 1.121152 2 3 tcp 1040 ------- 0 0.0 4.0 28 42
d 1.121152 2 3 tcp 1040 ------- 0 0.0 4.0 28 42
- 1.121152 2 3 tcp 1040 ------- 0 0.0 4.0 21 35
r 1.121312 2 3 tcp 1040 ------- 0 0.0 4.0 14 28
+ 1.121312 3 4 tcp 1040 ------- 0 0.0 4.0 14 28
- 1.121312 3 4 tcp 1040 ------- 0 0.0 4.0 14 28
r 1.122816 0 2 tcp 1040 ------- 0 0.0 4.0 29 43
+ 1.122816 2 3 tcp 1040 ------- 0 0.0 4.0 29 43
- 1.137792 2 3 tcp 1040 ------- 0 0.0 4.0 23 37
r 1.137952 2 3 tcp 1040 ------- 0 0.0 4.0 15 29
+ 1.137952 3 4 tcp 1040 ------- 0 0.0 4.0 15 29
- 1.137952 3 4 tcp 1040 ------- 0 0.0 4.0 15 29
r 1.142976 3 4 tcp 1040 ------- 0 0.0 4.0 14 28
+ 1.142976 4 3 ack 40 ------- 0 4.0 0.0 14 44
- 1.142976 4 3 ack 40 ------- 0 4.0 0.0 14 44
- 1.154432 2 3 tcp 1040 ------- 0 0.0 4.0 25 39
r 1.154592 2 3 tcp 1040 ------- 0 0.0 4.0 16 30
+ 1.154592 3 4 tcp 1040 ------- 0 0.0 4.0 16 30
- 1.154592 3 4 tcp 1040 ------- 0 0.0 4.0 16 30
r 1.159616 3 4 tcp 1040 ------- 0 0.0 4.0 15 29
+ 1.159616 4 3 ack 40 ------- 0 4.0 0.0 15 45
- 1.159616 4 3 ack 40 ------- 0 4.0 0.0 15 45
r 1.16304 4 3 ack 40 ------- 0 4.0 0.0 14 44
+ 1.16304 3 2 ack 40 ------- 0 4.0 0.0 14 44
- 1.16304 3 2 ack 40 ------- 0 4.0 0.0 14 44
- 1.171072 2 3 tcp 1040 ------- 0 0.0 4.0 27 41
r 1.171232 2 3 tcp 1040 ------- 0 0.0 4.0 17 31
+ 1.171232 3 4 tcp 1040 ------- 0 0.0 4.0 17 31
- 1.171232 3 4 tcp 1040 ------- 0 0.0 4.0 17 31
r 1.176256 3 4 tcp 1040 ------- 0 0.0 4.0 16 30
+ 1.176256 4 3 ack 40 ------- 0 4.0 0.0 16 46
- 1.176256 4 3 ack 40 ------- 0 4.0 0.0 16 46
r 1.17968 4 3 ack 40 ------- 0 4.0 0.0 15 45
+ 1.17968 3 2 ack 40 ------- 0 4.0 0.0 15 45
- 1.17968 3 2 ack 40 ------- 0 4.0 0.0 15 45
- 1.187712 2 3 tcp 1040 ------- 0 0.0 4.0 29 43
r 1.187872 2 3 tcp 1040 ------- 0 0.0 4.0 18 32
+ 1.187872 3 4 tcp 1040 ------- 0 0.0 4.0 18 32
- 1.187872 3 4 tcp 1040 ------- 0 0.0 4.0 18 32
r 1.192896 3 4 tcp 1040 ------- 0 0.0 4.0 17 31
+ 1.192896 4 3 ack 40 ------- 0 4.0 0.0 17 47
- 1.192896 4 3 ack 40 ------- 0 4.0 0.0 17 47
r 1.19632 4 3 ack 40 ------- 0 4.0 0.0 16 46
+ 1.19632 3 2 ack 40 ------- 0 4.0 0.0 16 46
- 1.19632 3 2 ack 40 ------- 0 4.0 0.0 16 46
r 1.204512 2 3 tcp 1040 ------- 0 0.0 4.0 19 33
+ 1.204512 3 4 tcp 1040 ------- 0 0.0 4.0 19 33
- 1.204512 3 4 tcp 1040 ------- 0 0.0 4.0 19 33
r 1.209536 3 4 tcp 1040 ------- 0 0.0 4.0 18 32
+ 1.209536 4 3 ack 40 ------- 0 4.0 0.0 18 48
- 1.209536 4 3 ack 40 ------- 0 4.0 0.0 18 48
r 1.21296 4 3 ack 40 ------- 0 4.0 0.0 17 47
+ 1.21296 3 2 ack 40 ------- 0 4.0 0.0 17 47
- 1.21296 3 2 ack 40 ------- 0 4.0 0.0 17 47
r 1.221152 2 3 tcp 1040 ------- 0 0.0 4.0 20 34
+ 1.221152 3 4 tcp 1040 ------- 0 0.0 4.0 20 34
- 1.221152 3 4 tcp 1040 ------- 0 0.0 4.0 20 34
r 1.226176 3 4 tcp 1040 ------- 0 0.0 4.0 19 33
+ 1.226176 4 3 ack 40 ------- 0 4.0 0.0 19 49
- 1.226176 4 3 ack 40 ------- 0 4.0 0.0 19 49
r 1.2296 4 3 ack 40 ------- 0 4.0 0.0 18 48
+ 1.2296 3 2 ack 40 ------- 0 4.0 0.0 18 48
- 1.2296 3 2 ack 40 ------- 0 4.0 0.0 18 48
r 1.237792 2 3 tcp 1040 ------- 0 0.0 4.0 21 35
+ 1.237792 3 4 tcp 1040 ------- 0 0.0 4.0 21 35
- 1.237792 3 4 tcp 1040 ------- 0 0.0 4.0 21 35
r 1.242816 3 4 tcp 1040 ------- 0 0.0 4.0 20 34
+ 1.242816 4 3 ack 40 ------- 0 4.0 0.0 20 50
- 1.242816 4 3 ack 40 ------- 0 4.0 0.0 20 50
r 1.24624 4 3 ack 40 ------- 0 4.0 0.0 19 49
+ 1.24624 3 2 ack 40 ------- 0 4.0 0.0 19 49
- 1.24624 3 2 ack 40 ------- 0 4.0 0.0 19 49
r 1.254432 2 3 tcp 1040 ------- 0 0.0 4.0 23 37
+ 1.254432 3 4 tcp 1040 ------- 0 0.0 4.0 23 37
- 1.254432 3 4 tcp 1040 ------- 0 0.0 4.0 23 37
r 1.259456 3 4 tcp 1040 ------- 0 0.0 4.0 21 35
+ 1.259456 4 3 ack 40 ------- 0 4.0 0.0 21 51
- 1.259456 4 3 ack 40 ------- 0 4.0 0.0 21 51
r 1.26288 4 3 ack 40 ------- 0 4.0 0.0 20 50
+ 1.26288 3 2 ack 40 ------- 0 4.0 0.0 20 50
- 1.26288 3 2 ack 40 ------- 0 4.0 0.0 20 50
r 1.26368 3 2 ack 40 ------- 0 4.0 0.0 14 44
+ 1.26368 2 0 ack 40 ------- 0 4.0 0.0 14 44
- 1.26368 2 0 ack 40 ------- 0 4.0 0.0 14 44
r 1.271072 2 3 tcp 1040 ------- 0 0.0 4.0 25 39
+ 1.271072 3 4 tcp 1040 ------- 0 0.0 4.0 25 39
- 1.271072 3 4 tcp 1040 ------- 0 0.0 4.0 25 39
r 1.276096 3 4 tcp 1040 ------- 0 0.0 4.0 23 37
+ 1.276096 4 3 ack 40 ------- 0 4.0 0.0 21 52
- 1.276096 4 3 ack 40 ------- 0 4.0 0.0 21 52
r 1.27952 4 3 ack 40 ------- 0 4.0 0.0 21 51
+ 1.27952 3 2 ack 40 ------- 0 4.0 0.0 21 51
- 1.27952 3 2 ack 40 ------- 0 4.0 0.0 21 51
r 1.28032 3 2 ack 40 ------- 0 4.0 0.0 15 45
+ 1.28032 2 0 ack 40 ------- 0 4.0 0.0 15 45
- 1.28032 2 0 ack 40 ------- 0 4.0 0.0 15 45
r 1.283744 2 0 ack 40 ------- 0 4.0 0.0 14 44
+ 1.283744 0 2 tcp 1040 ------- 0 0.0 4.0 30 53
- 1.283744 0 2 tcp 1040 ------- 0 0.0 4.0 30 53
+ 1.283744 0 2 tcp 1040 ------- 0 0.0 4.0 31 54
- 1.285408 0 2 tcp 1040 ------- 0 0.0 4.0 31 54
r 1.287712 2 3 tcp 1040 ------- 0 0.0 4.0 27 41
+ 1.287712 3 4 tcp 1040 ------- 0 0.0 4.0 27 41
- 1.287712 3 4 tcp 1040 ------- 0 0.0 4.0 27 41
r 1.292736 3 4 tcp 1040 ------- 0 0.0 4.0 25 39
+ 1.292736 4 3 ack 40 ------- 0 4.0 0.0 21 55
- 1.292736 4 3 ack 40 ------- 0 4.0 0.0 21 55
r 1.29616 4 3 ack 40 ------- 0 4.0 0.0 21 52
+ 1.29616 3 2 ack 40 ------- 0 4.0 0.0 21 52
- 1.29616 3 2 ack 40 ------- 0 4.0 0.0 21 52
r 1.29696 3 2 ack 40 ------- 0 4.0 0.0 16 46
+ 1.29696 2 0 ack 40 ------- 0 4.0 0.0 16 46
- 1.29696 2 0 ack 40 ------- 0 4.0 0.0 16 46
r 1.300384 2 0 ack 40 ------- 0 4.0 0.0 15 45
+ 1.300384 0 2 tcp 1040 ------- 0 0.0 4.0 32 56
- 1.300384 0 2 tcp 1040 ------- 0 0.0 4.0 32 56
+ 1.300384 0 2 tcp 1040 ------- 0 0.0 4.0 33 57
- 1.302048 0 2 tcp 1040 ------- 0 0.0 4.0 33 57
r 1.304352 2 3 tcp 1040 ------- 0 0.0 4.0 29 43
+ 1.304352 3 4 tcp 1040 ------- 0 0.0 4.0 29 43
- 1.304352 3 4 tcp 1040 ------- 0 0.0 4.0 29 43
r 1.305408 0 2 tcp 1040 ------- 0 0.0 4.0 30 53
+ 1.305408 2 3 tcp 1040 ------- 0 0.0 4.0 30 53
- 1.305408 2 3 tcp 1040 ------- 0 0.0 4.0 30 53
r 1.307072 0 2 tcp 1040 ------- 0 0.0 4.0 31 54
+ 1.307072 2 3 tcp 1040 ------- 0 0.0 4.0 31 54
r 1.309376 3 4 tcp 1040 ------- 0 0.0 4.0 27 41
+ 1.309376 4 3 ack 40 ------- 0 4.0 0.0 21 58
- 1.309376 4 3 ack 40 ------- 0 4.0 0.0 21 58
r 1.3128 4 3 ack 40 ------- 0 4.0 0.0 21 55
+ 1.3128 3 2 ack 40 ------- 0 4.0 0.0 21 55
- 1.3128 3 2 ack 40 ------- 0 4.0 0.0 21 55
r 1.3136 3 2 ack 40 ------- 0 4.0 0.0 17 47
+ 1.3136 2 0 ack 40 ------- 0 4.0 0.0 17 47
- 1.3136 2 0 ack 40 ------- 0 4.0 0.0 17 47
r 1.317024 2 0 ack 40 ------- 0 4.0 0.0 16 46
+ 1.317024 0 2 tcp 1040 ------- 0 0.0 4.0 34 59
- 1.317024 0 2 tcp 1040 ------- 0 0.0 4.0 34 59
+ 1.317024 0 2 tcp 1040 ------- 0 0.0 4.0 35 60
- 1.318688 0 2 tcp 1040 ------- 0 0.0 4.0 35 60
r 1.322048 0 2 tcp 1040 ------- 0 0.0 4.0 32 56
+ 1.322048 2 3 tcp 1040 ------- 0 0.0 4.0 32 56
- 1.322048 2 3 tcp 1040 ------- 0 0.0 4.0 31 54
r 1.323712 0 2 tcp 1040 ------- 0 0.0 4.0 33 57
+ 1.323712 2 3 tcp 1040 ------- 0 0.0 4.0 33 57
r 1.326016 3 4 tcp 1040 ------- 0 0.0 4.0 29 43
+ 1.326016 4 3 ack 40 ------- 0 4.0 0.0 21 61
- 1.326016 4 3 ack 40 ------- 0 4.0 0.0 21 61
r 1.32944 4 3 ack 40 ------- 0 4.0 0.0 21 58
+ 1.32944 3 2 ack 40 ------- 0 4.0 0.0 21 58
- 1.32944 3 2 ack 40 ------- 0 4.0 0.0 21 58
r 1.33024 3 2 ack 40 ------- 0 4.0 0.0 18 48
+ 1.33024 2 0 ack 40 ------- 0 4.0 0.0 18 48
- 1.33024 2 0 ack 40 ------- 0 4.0 0.0 18 48
r 1.333664 2 0 ack 40 ------- 0 4.0 0.0 17 47
+ 1.333664 0 2 tcp 1040 ------- 0 0.0 4.0 36 62
- 1.333664 0 2 tcp 1040 ------- 0 0.0 4.0 36 62
+ 1.333664 0 2 tcp 1040 ------- 0 0.0 4.0 37 63
- 1.335328 0 2 tcp 1040 ------- 0 0.0 4.0 37 63
r 1.338688 0 2 tcp 1040 ------- 0 0.0 4.0 34 59
+ 1.338688 2 3 tcp 1040 ------- 0 0.0 4.0 34 59
- 1.338688 2 3 tcp 1040 ------- 0 0.0 4.0 32 56
r 1.340352 0 2 tcp 1040 ------- 0 0.0 4.0 35 60
+ 1.340352 2 3 tcp 1040 ------- 0 0.0 4.0 35 60
r 1.34608 4 3 ack 40 ------- 0 4.0 0.0 21 61
+ 1.34608 3 2 ack 40 ------- 0 4.0 0.0 21 61
- 1.34608 3 2 ack 40 ------- 0 4.0 0.0 21 61
r 1.34688 3 2 ack 40 ------- 0 4.0 0.0 19 49
+ 1.34688 2 0 ack 40 ------- 0 4.0 0.0 19 49
- 1.34688 2 0 ack 40 ------- 0 4.0 0.0 19 49
r 1.350304 2 0 ack 40 ------- 0 4.0 0.0 18 48
+ 1.350304 0 2 tcp 1040 ------- 0 0.0 4.0 38 64
- 1.350304 0 2 tcp 1040 ------- 0 0.0 4.0 38 64
r 1.355328 0 2 tcp 1040 ------- 0 0.0 4.0 36 62
+ 1.355328 2 3 tcp 1040 ------- 0 0.0 4.0 36 62
- 1.355328 2 3 tcp 1040 ------- 0 0.0 4.0 33 57
r 1.356992 0 2 tcp 1040 ------- 0 0.0 4.0 37 63
+ 1.356992 2 3 tcp 1040 ------- 0 0.0 4.0 37 63
r 1.36352 3 2 ack 40 ------- 0 4.0 0.0 20 50
+ 1.36352 2 0 ack 40 ------- 0 4.0 0.0 20 50
- 1.36352 2 0 ack 40 ------- 0 4.0 0.0 20 50
r 1.366944 2 0 ack 40 ------- 0 4.0 0.0 19 49
+ 1.366944 0 2 tcp 1040 ------- 0 0.0 4.0 39 65
- 1.366944 0 2 tcp 1040 ------- 0 0.0 4.0 39 65
r 1.371968 0 2 tcp 1040 ------- 0 0.0 4.0 38 64
+ 1.371968 2 3 tcp 1040 ------- 0 0.0 4.0 38 64
d 1.371968 2 3 tcp 1040 ------- 0 0.0 4.0 38 64
- 1.371968 2 3 tcp 1040 ------- 0 0.0 4.0 34 59
r 1.38016 3 2 ack 40 ------- 0 4.0 0.0 21 51
+ 1.38016 2 0 ack 40 ------- 0 4.0 0.0 21 51
- 1.38016 2 0 ack 40 ------- 0 4.0 0.0 21 51
r 1.383584 2 0 ack 40 ------- 0 4.0 0.0 20 50
+ 1.383584 0 2 tcp 1040 ------- 0 0.0 4.0 40 66
- 1.383584 0 2 tcp 1040 ------- 0 0.0 4.0 40 66
r 1.388608 0 2 tcp 1040 ------- 0 0.0 4.0 39 65
+ 1.388608 2 3 tcp 1040 ------- 0 0.0 4.0 39 65
- 1.388608 2 3 tcp 1040 ------- 0 0.0 4.0 35 60
r 1.3968 3 2 ack 40 ------- 0 4.0 0.0 21 52
+ 1.3968 2 0 ack 40 ------- 0 4.0 0.0 21 52
- 1.3968 2 0 ack 40 ------- 0 4.0 0.0 21 52
r 1.400224 2 0 ack 40 ------- 0 4.0 0.0 21 51
+ 1.400224 0 2 tcp 1040 ------- 0 0.0 4.0 41 67
- 1.400224 0 2 tcp 1040 ------- 0 0.0 4.0 41 67
r 1.405248 0 2 tcp 1040 ------- 0 0.0 4.0 40 66
+ 1.405248 2 3 tcp 1040 ------- 0 0.0 4.0 40 66
- 1.405248 2 3 tcp 1040 ------- 0 0.0 4.0 36 62
r 1.41344 3 2 ack 40 ------- 0 4.0 0.0 21 55
+ 1.41344 2 0 ack 40 ------- 0 4.0 0.0 21 55
- 1.41344 2 0 ack 40 ------- 0 4.0 0.0 21 55
r 1.416864 2 0 ack 40 ------- 0 4.0 0.0 21 52
r 1.421888 0 2 tcp 1040 ------- 0 0.0 4.0 41 67
+ 1.421888 2 3 tcp 1040 ------- 0 0.0 4.0 41 67
- 1.421888 2 3 tcp 1040 ------- 0 0.0 4.0 37 63
r 1.422048 2 3 tcp 1040 ------- 0 0.0 4.0 30 53
+ 1.422048 3 4 tcp 1040 ------- 0 0.0 4.0 30 53
- 1.422048 3 4 tcp 1040 ------- 0 0.0 4.0 30 53
r 1.43008 3 2 ack 40 ------- 0 4.0 0.0 21 58
+ 1.43008 2 0 ack 40 ------- 0 4.0 0.0 21 58
- 1.43008 2 0 ack 40 ------- 0 4.0 0.0 21 58
r 1.433504 2 0 ack 40 ------- 0 4.0 0.0 21 55
- 1.438528 2 3 tcp 1040 ------- 0 0.0 4.0 39 65
r 1.438688 2 3 tcp 1040 ------- 0 0.0 4.0 31 54
+ 1.438688 3 4 tcp 1040 ------- 0 0.0 4.0 31 54
- 1.438688 3 4 tcp 1040 ------- 0 0.0 4.0 31 54
r 1.443712 3 4 tcp 1040 ------- 0 0.0 4.0 30 53
+ 1.443712 4 3 ack 40 ------- 0 4.0 0.0 21 68
- 1.443712 4 3 ack 40 ------- 0 4.0 0.0 21 68
r 1.44672 3 2 ack 40 ------- 0 4.0 0.0 21 61
+ 1.44672 2 0 ack 40 ------- 0 4.0 0.0 21 61
- 1.44672 2 0 ack 40 ------- 0 4.0 0.0 21 61
r 1.450144 2 0 ack 40 ------- 0 4.0 0.0 21 58
- 1.455168 2 3 tcp 1040 ------- 0 0.0 4.0 40 66
r 1.455328 2 3 tcp 1040 ------- 0 0.0 4.0 32 56
+ 1.455328 3 4 tcp 1040 ------- 0 0.0 4.0 32 56
- 1.455328 3 4 tcp 1040 ------- 0 0.0 4.0 32 56
r 1.460352 3 4 tcp 1040 ------- 0 0.0 4.0 31 54
+ 1.460352 4 3 ack 40 ------- 0 4.0 0.0 21 69
- 1.460352 4 3 ack 40 ------- 0 4.0 0.0 21 69
r 1.463776 4 3 ack 40 ------- 0 4.0 0.0 21 68
+ 1.463776 3 2 ack 40 ------- 0 4.0 0.0 21 68
- 1.463776 3 2 ack 40 ------- 0 4.0 0.0 21 68
r 1.466784 2 0 ack 40 ------- 0 4.0 0.0 21 61
- 1.471808 2 3 tcp 1040 ------- 0 0.0 4.0 41 67
r 1.471968 2 3 tcp 1040 ------- 0 0.0 4.0 33 57
+ 1.471968 3 4 tcp 1040 ------- 0 0.0 4.0 33 57
- 1.471968 3 4 tcp 1040 ------- 0 0.0 4.0 33 57
r 1.476992 3 4 tcp 1040 ------- 0 0.0 4.0 32 56
+ 1.476992 4 3 ack 40 ------- 0 4.0 0.0 21 70
- 1.476992 4 3 ack 40 ------- 0 4.0 0.0 21 70
r 1.480416 4 3 ack 40 ------- 0 4.0 0.0 21 69
+ 1.480416 3 2 ack 40 ------- 0 4.0 0.0 21 69
- 1.480416 3 2 ack 40 ------- 0 4.0 0.0 21 69
r 1.488608 2 3 tcp 1040 ------- 0 0.0 4.0 34 59
+ 1.488608 3 4 tcp 1040 ------- 0 0.0 4.0 34 59
- 1.488608 3 4 tcp 1040 ------- 0 0.0 4.0 34 59
r 1.493632 3 4 tcp 1040 ------- 0 0.0 4.0 33 57
+ 1.493632 4 3 ack 40 ------- 0 4.0 0.0 21 71
- 1.493632 4 3 ack 40 ------- 0 4.0 0.0 21 71
r 1.497056 4 3 ack 40 ------- 0 4.0 0.0 21 70
+ 1.497056 3 2 ack 40 ------- 0 4.0 0.0 21 70
- 1.497056 3 2 ack 40 ------- 0 4.0 0.0 21 70
r 1.505248 2 3 tcp 1040 ------- 0 0.0 4.0 35 60
+ 1.505248 3 4 tcp 1040 ------- 0 0.0 4.0 35 60
- 1.505248 3 4 tcp 1040 ------- 0 0.0 4.0 35 60
r 1.510272 3 4 tcp 1040 ------- 0 0.0 4.0 34 59
+ 1.510272 4 3 ack 40 ------- 0 4.0 0.0 21 72
- 1.510272 4 3 ack 40 ------- 0 4.0 0.0 21 72
r 1.513696 4 3 ack 40 ------- 0 4.0 0.0 21 71
+ 1.513696 3 2 ack 40 ------- 0 4.0 0.0 21 71
- 1.513696 3 2 ack 40 ------- 0 4.0 0.0 21 71
r 1.521888 2 3 tcp 1040 ------- 0 0.0 4.0 36 62
+ 1.521888 3 4 tcp 1040 ------- 0 0.0 4.0 36 62
- 1.521888 3 4 tcp 1040 ------- 0 0.0 4.0 36 62
r 1.526912 3 4 tcp 1040 ------- 0 0.0 4.0 35 60
+ 1.526912 4 3 ack 40 ------- 0 4.0 0.0 21 73
- 1.526912 4 3 ack 40 ------- 0 4.0 0.0 21 73
r 1.530336 4 3 ack 40 ------- 0 4.0 0.0 21 72
+ 1.530336 3 2 ack 40 ------- 0 4.0 0.0 21 72
- 1.530336 3 2 ack 40 ------- 0 4.0 0.0 21 72
r 1.538528 2 3 tcp 1040 ------- 0 0.0 4.0 37 63
+ 1.538528 3 4 tcp 1040 ------- 0 0.0 4.0 37 63
- 1.538528 3 4 tcp 1040 ------- 0 0.0 4.0 37 63
r 1.543552 3 4 tcp 1040 ------- 0 0.0 4.0 36 62
+ 1.543552 4 3 ack 40 ------- 0 4.0 0.0 21 74
- 1.543552 4 3 ack 40 ------- 0 4.0 0.0 21 74
r 1.546976 4 3 ack 40 ------- 0 4.0 0.0 21 73
+ 1.546976 3 2 ack 40 ------- 0 4.0 0.0 21 73
- 1.546976 3 2 ack 40 ------- 0 4.0 0.0 21 73
r 1.555168 2 3 tcp 1040 ------- 0 0.0 4.0 39 65
+ 1.555168 3 4 tcp 1040 ------- 0 0.0 4.0 39 65
- 1.555168 3 4 tcp 1040 ------- 0 0.0 4.0 39 65
r 1.560192 3 4 tcp 1040 ------- 0 0.0 4.0 37 63
+ 1.560192 4 3 ack 40 ------- 0 4.0 0.0 21 75
- 1.560192 4 3 ack 40 ------- 0 4.0 0.0 21 75
r 1.563616 4 3 ack 40 ------- 0 4.0 0.0 21 74
+ 1.563616 3 2 ack 40 ------- 0 4.0 0.0 21 74
- 1.563616 3 2 ack 40 ------- 0 4.0 0.0 21 74
r 1.564416 3 2 ack 40 ------- 0 4.0 0.0 21 68
+ 1.564416 2 0 ack 40 ------- 0 4.0 0.0 21 68
- 1.564416 2 0 ack 40 ------- 0 4.0 0.0 21 68
r 1.571808 2 3 tcp 1040 ------- 0 0.0 4.0 40 66
+ 1.571808 3 4 tcp 1040 ------- 0 0.0 4.0 40 66
- 1.571808 3 4 tcp 1040 ------- 0 0.0 4.0 40 66
r 1.576832 3 4 tcp 1040 ------- 0 0.0 4.0 39 65
+ 1.576832 4 3 ack 40 ------- 0 4.0 0.0 21 76
- 1.576832 4 3 ack 40 ------- 0 4.0 0.0 21 76
r 1.580256 4 3 ack 40 ------- 0 4.0 0.0 21 75
+ 1.580256 3 2 ack 40 ------- 0 4.0 0.0 21 75
- 1.580256 3 2 ack 40 ------- 0 4.0 0.0 21 75
r 1.581056 3 2 ack 40 ------- 0 4.0 0.0 21 69
+ 1.581056 2 0 ack 40 ------- 0 4.0 0.0 21 69
- 1.581056 2 0 ack 40 ------- 0 4.0 0.0 21 69
r 1.58448 2 0 ack 40 ------- 0 4.0 0.0 21 68
r 1.588448 2 3 tcp 1040 ------- 0 0.0 4.0 41 67
+ 1.588448 3 4 tcp 1040 ------- 0 0.0 4.0 41 67
- 1.588448 3 4 tcp 1040 ------- 0 0.0 4.0 41 67
r 1.593472 3 4 tcp 1040 ------- 0 0.0 4.0 40 66
+ 1.593472 4 3 ack 40 ------- 0 4.0 0.0 21 77
- 1.593472 4 3 ack 40 ------- 0 4.0 0.0 21 77
r 1.596896 4 3 ack 40 ------- 0 4.0 0.0 21 76
+ 1.596896 3 2 ack 40 ------- 0 4.0 0.0 21 76
- 1.596896 3 2 ack 40 ------- 0 4.0 0.0 21 76
r 1.597696 3 2 ack 40 ------- 0 4.0 0.0 21 70